 Set GAUSS_CDEF to "0-39".
 Set GAUSS_MDEF to "140GB".
 Entering Gaussian System, Link 0=g16
 Initial command:
 /gpfslocalsup/prod/g16/rev-C01/g16/l1.exe "/lustre/fsn1/jobscratch/uzx44ef_478186/Gau-1147009.inp" -scrdir="/lustre/fsn1/jobscratch/uzx44ef_478186/"
 Default CPUs for threads: 0-39
 Default is to use a total of  40 processors:
                               40 via shared-memory
                                1 via Linda
 Entering Link 1 = /gpfslocalsup/prod/g16/rev-C01/g16/l1.exe PID=   1147010.
  
 Copyright (c) 1988-2019, Gaussian, Inc.  All Rights Reserved.
  
 This is part of the Gaussian(R) 16 program.  It is based on
 the Gaussian(R) 09 system (copyright 2009, Gaussian, Inc.),
 the Gaussian(R) 03 system (copyright 2003, Gaussian, Inc.),
 the Gaussian(R) 98 system (copyright 1998, Gaussian, Inc.),
 the Gaussian(R) 94 system (copyright 1995, Gaussian, Inc.),
 the Gaussian 92(TM) system (copyright 1992, Gaussian, Inc.),
 the Gaussian 90(TM) system (copyright 1990, Gaussian, Inc.),
 the Gaussian 88(TM) system (copyright 1988, Gaussian, Inc.),
 the Gaussian 86(TM) system (copyright 1986, Carnegie Mellon
 University), and the Gaussian 82(TM) system (copyright 1983,
 Carnegie Mellon University). Gaussian is a federally registered
 trademark of Gaussian, Inc.
  
 This software contains proprietary and confidential information,
 including trade secrets, belonging to Gaussian, Inc.
  
 This software is provided under written license and may be
 used, copied, transmitted, or stored only in accord with that
 written license.
  
 The following legend is applicable only to US Government
 contracts under FAR:
  
                    RESTRICTED RIGHTS LEGEND
  
 Use, reproduction and disclosure by the US Government is
 subject to restrictions as set forth in subparagraphs (a)
 and (c) of the Commercial Computer Software - Restricted
 Rights clause in FAR 52.227-19.
  
 Gaussian, Inc.
 340 Quinnipiac St., Bldg. 40, Wallingford CT 06492
  
  
 ---------------------------------------------------------------
 Warning -- This program may not be used in any manner that
 competes with the business of Gaussian, Inc. or will provide
 assistance to any competitor of Gaussian, Inc.  The licensee
 of this program is prohibited from giving any competitor of
 Gaussian, Inc. access to this program.  By using this program,
 the user acknowledges that Gaussian, Inc. is engaged in the
 business of creating and licensing software in the field of
 computational chemistry and represents and warrants to the
 licensee that it is not a competitor of Gaussian, Inc. and that
 it will not use this program in any manner prohibited above.
 ---------------------------------------------------------------
  

 Cite this work as:
 Gaussian 16, Revision C.01,
 M. J. Frisch, G. W. Trucks, H. B. Schlegel, G. E. Scuseria, 
 M. A. Robb, J. R. Cheeseman, G. Scalmani, V. Barone, 
 G. A. Petersson, H. Nakatsuji, X. Li, M. Caricato, A. V. Marenich, 
 J. Bloino, B. G. Janesko, R. Gomperts, B. Mennucci, H. P. Hratchian, 
 J. V. Ortiz, A. F. Izmaylov, J. L. Sonnenberg, D. Williams-Young, 
 F. Ding, F. Lipparini, F. Egidi, J. Goings, B. Peng, A. Petrone, 
 T. Henderson, D. Ranasinghe, V. G. Zakrzewski, J. Gao, N. Rega, 
 G. Zheng, W. Liang, M. Hada, M. Ehara, K. Toyota, R. Fukuda, 
 J. Hasegawa, M. Ishida, T. Nakajima, Y. Honda, O. Kitao, H. Nakai, 
 T. Vreven, K. Throssell, J. A. Montgomery, Jr., J. E. Peralta, 
 F. Ogliaro, M. J. Bearpark, J. J. Heyd, E. N. Brothers, K. N. Kudin, 
 V. N. Staroverov, T. A. Keith, R. Kobayashi, J. Normand, 
 K. Raghavachari, A. P. Rendell, J. C. Burant, S. S. Iyengar, 
 J. Tomasi, M. Cossi, J. M. Millam, M. Klene, C. Adamo, R. Cammi, 
 J. W. Ochterski, R. L. Martin, K. Morokuma, O. Farkas, 
 J. B. Foresman, and D. J. Fox, Gaussian, Inc., Wallingford CT, 2019.
 
 ******************************************
 Gaussian 16:  ES64L-G16RevC.01  3-Jul-2019
                11-Feb-2025 
 ******************************************
 %mem=63900MB
 %nprocshared=40
 Will use up to   40 processors via shared memory.
 %chk=Rigid_ESIPT_Enol_COOH_0.chk
 --------------------------------------------------------------
 #P PBE1PBE/6-31+G(d,p) Opt Freq SCRF(PCM,Solvent=Acetonitrile)
 --------------------------------------------------------------
 1/18=20,19=15,26=3,38=1/1,3;
 2/9=110,12=2,17=6,18=5,40=1/2;
 3/5=1,6=6,7=111,11=2,25=1,30=1,70=2201,71=1,72=2,74=-13/1,2,3;
 4//1;
 5/5=2,38=5,53=2/2;
 6/7=2,8=2,9=2,10=2,28=1/1;
 7//1,2,3,16;
 1/18=20,19=15,26=3/3(2);
 2/9=110/2;
 99//99;
 2/9=110/2;
 3/5=1,6=6,7=111,11=2,25=1,30=1,70=2205,71=1,72=2,74=-13/1,2,3;
 4/5=5,16=3,69=1/1;
 5/5=2,38=5,53=2/2;
 7//1,2,3,16;
 1/18=20,19=15,26=3/3(-5);
 2/9=110/2;
 6/7=2,8=2,9=2,10=2,19=2,28=1/1;
 99/9=1/99;
 Leave Link    1 at Tue Feb 11 11:45:04 2025, MaxMem=  8375500800 cpu:               5.0 elap:               0.1
 (Enter /gpfslocalsup/prod/g16/rev-C01/g16/l101.exe)
 -----
 Title
 -----
 Symbolic Z-matrix:
 Charge =  0 Multiplicity = 1
 N                    -1.78024   1.65827  -0.00014 
 C                    -1.36132   0.36438  -0.00005 
 C                     0.        0.        0. 
 C                     0.37851  -1.3396    0.00003 
 H                     1.43897  -1.57913   0.00006 
 C                    -0.56057  -2.38047   0.00001 
 H                    -0.24068  -3.41829   0.00003 
 C                    -1.90462  -2.03432  -0.00002 
 C                    -3.11961  -2.9328   -0.00002 
 C                    -2.30225  -0.68742  -0.00004 
 C                    -6.39088  -0.93175  -0.00002 
 C                    -6.73079   1.44167  -0.00001 
 C                    -5.82198   0.35668  -0.00002 
 N                    -4.46239   0.51024  -0.00004 
 H                    -9.71698  -0.25028  -0.00001 
 C                    -3.75468  -0.61125  -0.00004 
 C                    -7.77172  -1.18858  -0.00002 
 C                    -4.26407  -1.95873  -0.00003 
 C                    -8.09468   1.19456  0. 
 C                    -5.62163  -2.11776  -0.00002 
 H                    -2.77475   1.84549   0.00007 
 H                    -1.12159   2.41798   0.00018 
 C                    -8.63873  -0.11519  -0.00001 
 C                    -6.55414  -3.3021    0.00002 
 C                    -7.98627  -2.68611  -0.00006 
 H                    -8.55832  -3.00425  -0.8783 
 H                    -8.55846  -3.0043    0.87807 
 H                    -6.38322  -3.93527  -0.8776 
 H                    -6.38327  -3.93512   0.87776 
 H                    -3.13889  -3.58963  -0.87928 
 H                    -3.1389   -3.58962   0.87925 
 H                    -6.35028   2.45945  -0.00001 
 H                    -8.77858   2.03951   0.00001 
 C                     0.97539   1.00058   0.00001 
 O                     0.78443   2.20119  -0.0447 
 O                     2.21153   0.48228   0.05722 
 H                     2.80198   1.26475   0.05158 
 
 ITRead=  0  0  0  0  0  0  0  0  0  0  0  0  0  0  0  0  0  0  0  0
 ITRead=  0  0  0  0  0  0  0  0  0  0  0  0  0  0  0  0  0
 MicOpt= -1 -1 -1 -1 -1 -1 -1 -1 -1 -1 -1 -1 -1 -1 -1 -1 -1 -1 -1 -1
 MicOpt= -1 -1 -1 -1 -1 -1 -1 -1 -1 -1 -1 -1 -1 -1 -1 -1 -1
 NAtoms=     37 NQM=       37 NQMF=       0 NMMI=      0 NMMIF=      0
                NMic=       0 NMicF=      0.
                    Isotopes and Nuclear Properties:
 (Nuclear quadrupole moments (NQMom) in fm**2, nuclear magnetic moments (NMagM)
  in nuclear magnetons)

  Atom         1           2           3           4           5           6           7           8           9          10
 IAtWgt=          14          12          12          12           1          12           1          12          12          12
 AtmWgt=  14.0030740  12.0000000  12.0000000  12.0000000   1.0078250  12.0000000   1.0078250  12.0000000  12.0000000  12.0000000
 NucSpn=           2           0           0           0           1           0           1           0           0           0
 AtZEff=  -0.0000000  -0.0000000  -0.0000000  -0.0000000  -0.0000000  -0.0000000  -0.0000000  -0.0000000  -0.0000000  -0.0000000
 NQMom=    2.0440000   0.0000000   0.0000000   0.0000000   0.0000000   0.0000000   0.0000000   0.0000000   0.0000000   0.0000000
 NMagM=    0.4037610   0.0000000   0.0000000   0.0000000   2.7928460   0.0000000   2.7928460   0.0000000   0.0000000   0.0000000
 AtZNuc=   7.0000000   6.0000000   6.0000000   6.0000000   1.0000000   6.0000000   1.0000000   6.0000000   6.0000000   6.0000000

  Atom        11          12          13          14          15          16          17          18          19          20
 IAtWgt=          12          12          12          14           1          12          12          12          12          12
 AtmWgt=  12.0000000  12.0000000  12.0000000  14.0030740   1.0078250  12.0000000  12.0000000  12.0000000  12.0000000  12.0000000
 NucSpn=           0           0           0           2           1           0           0           0           0           0
 AtZEff=  -0.0000000  -0.0000000  -0.0000000  -0.0000000  -0.0000000  -0.0000000  -0.0000000  -0.0000000  -0.0000000  -0.0000000
 NQMom=    0.0000000   0.0000000   0.0000000   2.0440000   0.0000000   0.0000000   0.0000000   0.0000000   0.0000000   0.0000000
 NMagM=    0.0000000   0.0000000   0.0000000   0.4037610   2.7928460   0.0000000   0.0000000   0.0000000   0.0000000   0.0000000
 AtZNuc=   6.0000000   6.0000000   6.0000000   7.0000000   1.0000000   6.0000000   6.0000000   6.0000000   6.0000000   6.0000000

  Atom        21          22          23          24          25          26          27          28          29          30
 IAtWgt=           1           1          12          12          12           1           1           1           1           1
 AtmWgt=   1.0078250   1.0078250  12.0000000  12.0000000  12.0000000   1.0078250   1.0078250   1.0078250   1.0078250   1.0078250
 NucSpn=           1           1           0           0           0           1           1           1           1           1
 AtZEff=  -0.0000000  -0.0000000  -0.0000000  -0.0000000  -0.0000000  -0.0000000  -0.0000000  -0.0000000  -0.0000000  -0.0000000
 NQMom=    0.0000000   0.0000000   0.0000000   0.0000000   0.0000000   0.0000000   0.0000000   0.0000000   0.0000000   0.0000000
 NMagM=    2.7928460   2.7928460   0.0000000   0.0000000   0.0000000   2.7928460   2.7928460   2.7928460   2.7928460   2.7928460
 AtZNuc=   1.0000000   1.0000000   6.0000000   6.0000000   6.0000000   1.0000000   1.0000000   1.0000000   1.0000000   1.0000000

  Atom        31          32          33          34          35          36          37
 IAtWgt=           1           1           1          12          16          16           1
 AtmWgt=   1.0078250   1.0078250   1.0078250  12.0000000  15.9949146  15.9949146   1.0078250
 NucSpn=           1           1           1           0           0           0           1
 AtZEff=  -0.0000000  -0.0000000  -0.0000000  -0.0000000  -0.0000000  -0.0000000  -0.0000000
 NQMom=    0.0000000   0.0000000   0.0000000   0.0000000   0.0000000   0.0000000   0.0000000
 NMagM=    2.7928460   2.7928460   2.7928460   0.0000000   0.0000000   0.0000000   2.7928460
 AtZNuc=   1.0000000   1.0000000   1.0000000   6.0000000   8.0000000   8.0000000   1.0000000
 Leave Link  101 at Tue Feb 11 11:45:05 2025, MaxMem=  8375500800 cpu:              15.0 elap:               0.4
 (Enter /gpfslocalsup/prod/g16/rev-C01/g16/l103.exe)

 GradGradGradGradGradGradGradGradGradGradGradGradGradGradGradGradGradGrad
 Berny optimization.
 Initialization pass.
                           ----------------------------
                           !    Initial Parameters    !
                           ! (Angstroms and Degrees)  !
 --------------------------                            --------------------------
 ! Name  Definition              Value          Derivative Info.                !
 --------------------------------------------------------------------------------
 ! R1    R(1,2)                  1.36           estimate D2E/DX2                !
 ! R2    R(1,21)                 1.012          estimate D2E/DX2                !
 ! R3    R(1,22)                 1.0055         estimate D2E/DX2                !
 ! R4    R(2,3)                  1.4092         estimate D2E/DX2                !
 ! R5    R(2,10)                 1.4113         estimate D2E/DX2                !
 ! R6    R(3,4)                  1.392          estimate D2E/DX2                !
 ! R7    R(3,34)                 1.3973         estimate D2E/DX2                !
 ! R8    R(4,5)                  1.0872         estimate D2E/DX2                !
 ! R9    R(4,6)                  1.4019         estimate D2E/DX2                !
 ! R10   R(6,7)                  1.086          estimate D2E/DX2                !
 ! R11   R(6,8)                  1.3879         estimate D2E/DX2                !
 ! R12   R(8,9)                  1.5111         estimate D2E/DX2                !
 ! R13   R(8,10)                 1.4044         estimate D2E/DX2                !
 ! R14   R(9,18)                 1.5029         estimate D2E/DX2                !
 ! R15   R(9,30)                 1.0977         estimate D2E/DX2                !
 ! R16   R(9,31)                 1.0977         estimate D2E/DX2                !
 ! R17   R(10,16)                1.4544         estimate D2E/DX2                !
 ! R18   R(11,13)                1.4084         estimate D2E/DX2                !
 ! R19   R(11,17)                1.4045         estimate D2E/DX2                !
 ! R20   R(11,20)                1.4136         estimate D2E/DX2                !
 ! R21   R(12,13)                1.4153         estimate D2E/DX2                !
 ! R22   R(12,19)                1.3861         estimate D2E/DX2                !
 ! R23   R(12,32)                1.0866         estimate D2E/DX2                !
 ! R24   R(13,14)                1.3682         estimate D2E/DX2                !
 ! R25   R(14,16)                1.3261         estimate D2E/DX2                !
 ! R26   R(15,23)                1.0867         estimate D2E/DX2                !
 ! R27   R(16,18)                1.4405         estimate D2E/DX2                !
 ! R28   R(17,23)                1.3798         estimate D2E/DX2                !
 ! R29   R(17,25)                1.5128         estimate D2E/DX2                !
 ! R30   R(18,20)                1.3668         estimate D2E/DX2                !
 ! R31   R(19,23)                1.4182         estimate D2E/DX2                !
 ! R32   R(19,33)                1.087          estimate D2E/DX2                !
 ! R33   R(20,24)                1.5074         estimate D2E/DX2                !
 ! R34   R(24,25)                1.559          estimate D2E/DX2                !
 ! R35   R(24,28)                1.0956         estimate D2E/DX2                !
 ! R36   R(24,29)                1.0956         estimate D2E/DX2                !
 ! R37   R(25,26)                1.0953         estimate D2E/DX2                !
 ! R38   R(25,27)                1.0953         estimate D2E/DX2                !
 ! R39   R(34,35)                1.2165         estimate D2E/DX2                !
 ! R40   R(34,36)                1.3416         estimate D2E/DX2                !
 ! R41   R(36,37)                0.9803         estimate D2E/DX2                !
 ! A1    A(2,1,21)             118.6022         estimate D2E/DX2                !
 ! A2    A(2,1,22)             121.1349         estimate D2E/DX2                !
 ! A3    A(21,1,22)            120.2629         estimate D2E/DX2                !
 ! A4    A(1,2,3)              122.9254         estimate D2E/DX2                !
 ! A5    A(1,2,10)             120.2437         estimate D2E/DX2                !
 ! A6    A(3,2,10)             116.831          estimate D2E/DX2                !
 ! A7    A(2,3,4)              120.7626         estimate D2E/DX2                !
 ! A8    A(2,3,34)             119.2848         estimate D2E/DX2                !
 ! A9    A(4,3,34)             119.9526         estimate D2E/DX2                !
 ! A10   A(3,4,5)              118.506          estimate D2E/DX2                !
 ! A11   A(3,4,6)              122.1653         estimate D2E/DX2                !
 ! A12   A(5,4,6)              119.3287         estimate D2E/DX2                !
 ! A13   A(4,6,7)              120.8122         estimate D2E/DX2                !
 ! A14   A(4,6,8)              117.6148         estimate D2E/DX2                !
 ! A15   A(7,6,8)              121.5729         estimate D2E/DX2                !
 ! A16   A(6,8,9)              129.075          estimate D2E/DX2                !
 ! A17   A(6,8,10)             120.8895         estimate D2E/DX2                !
 ! A18   A(9,8,10)             110.0354         estimate D2E/DX2                !
 ! A19   A(8,9,18)             103.1154         estimate D2E/DX2                !
 ! A20   A(8,9,30)             111.71           estimate D2E/DX2                !
 ! A21   A(8,9,31)             111.71           estimate D2E/DX2                !
 ! A22   A(18,9,30)            111.9908         estimate D2E/DX2                !
 ! A23   A(18,9,31)            111.9908         estimate D2E/DX2                !
 ! A24   A(30,9,31)            106.4555         estimate D2E/DX2                !
 ! A25   A(2,10,8)             121.7368         estimate D2E/DX2                !
 ! A26   A(2,10,16)            128.8137         estimate D2E/DX2                !
 ! A27   A(8,10,16)            109.4496         estimate D2E/DX2                !
 ! A28   A(13,11,17)           124.3602         estimate D2E/DX2                !
 ! A29   A(13,11,20)           123.2086         estimate D2E/DX2                !
 ! A30   A(17,11,20)           112.4312         estimate D2E/DX2                !
 ! A31   A(13,12,19)           119.6809         estimate D2E/DX2                !
 ! A32   A(13,12,32)           119.5505         estimate D2E/DX2                !
 ! A33   A(19,12,32)           120.7686         estimate D2E/DX2                !
 ! A34   A(11,13,12)           116.2259         estimate D2E/DX2                !
 ! A35   A(11,13,14)           120.2679         estimate D2E/DX2                !
 ! A36   A(12,13,14)           123.5063         estimate D2E/DX2                !
 ! A37   A(13,14,16)           115.8096         estimate D2E/DX2                !
 ! A38   A(10,16,14)           125.2558         estimate D2E/DX2                !
 ! A39   A(10,16,18)           107.7059         estimate D2E/DX2                !
 ! A40   A(14,16,18)           127.0384         estimate D2E/DX2                !
 ! A41   A(11,17,23)           118.3923         estimate D2E/DX2                !
 ! A42   A(11,17,25)           108.6894         estimate D2E/DX2                !
 ! A43   A(23,17,25)           132.9183         estimate D2E/DX2                !
 ! A44   A(9,18,16)            109.6938         estimate D2E/DX2                !
 ! A45   A(9,18,20)            132.9168         estimate D2E/DX2                !
 ! A46   A(16,18,20)           117.3894         estimate D2E/DX2                !
 ! A47   A(12,19,23)           122.8267         estimate D2E/DX2                !
 ! A48   A(12,19,33)           118.7169         estimate D2E/DX2                !
 ! A49   A(23,19,33)           118.4564         estimate D2E/DX2                !
 ! A50   A(11,20,18)           116.2862         estimate D2E/DX2                !
 ! A51   A(11,20,24)           108.8165         estimate D2E/DX2                !
 ! A52   A(18,20,24)           134.8973         estimate D2E/DX2                !
 ! A53   A(15,23,17)           121.7878         estimate D2E/DX2                !
 ! A54   A(15,23,19)           119.6982         estimate D2E/DX2                !
 ! A55   A(17,23,19)           118.5141         estimate D2E/DX2                !
 ! A56   A(20,24,25)           104.9421         estimate D2E/DX2                !
 ! A57   A(20,24,28)           110.9485         estimate D2E/DX2                !
 ! A58   A(20,24,29)           110.9468         estimate D2E/DX2                !
 ! A59   A(25,24,28)           111.8157         estimate D2E/DX2                !
 ! A60   A(25,24,29)           111.8148         estimate D2E/DX2                !
 ! A61   A(28,24,29)           106.4699         estimate D2E/DX2                !
 ! A62   A(17,25,24)           105.1208         estimate D2E/DX2                !
 ! A63   A(17,25,26)           111.1983         estimate D2E/DX2                !
 ! A64   A(17,25,27)           111.1999         estimate D2E/DX2                !
 ! A65   A(24,25,26)           111.4102         estimate D2E/DX2                !
 ! A66   A(24,25,27)           111.4111         estimate D2E/DX2                !
 ! A67   A(26,25,27)           106.5951         estimate D2E/DX2                !
 ! A68   A(3,34,35)            126.664          estimate D2E/DX2                !
 ! A69   A(3,34,36)            111.501          estimate D2E/DX2                !
 ! A70   A(35,34,36)           121.835          estimate D2E/DX2                !
 ! A71   A(34,36,37)           104.262          estimate D2E/DX2                !
 ! D1    D(21,1,2,3)          -179.9849         estimate D2E/DX2                !
 ! D2    D(21,1,2,10)            0.0176         estimate D2E/DX2                !
 ! D3    D(22,1,2,3)            -0.0241         estimate D2E/DX2                !
 ! D4    D(22,1,2,10)          179.9783         estimate D2E/DX2                !
 ! D5    D(1,2,3,4)           -179.9967         estimate D2E/DX2                !
 ! D6    D(1,2,3,34)             0.0028         estimate D2E/DX2                !
 ! D7    D(10,2,3,4)             0.0009         estimate D2E/DX2                !
 ! D8    D(10,2,3,34)         -179.9995         estimate D2E/DX2                !
 ! D9    D(1,2,10,8)           179.9966         estimate D2E/DX2                !
 ! D10   D(1,2,10,16)           -0.0045         estimate D2E/DX2                !
 ! D11   D(3,2,10,8)            -0.0011         estimate D2E/DX2                !
 ! D12   D(3,2,10,16)          179.9978         estimate D2E/DX2                !
 ! D13   D(2,3,4,5)            179.9998         estimate D2E/DX2                !
 ! D14   D(2,3,4,6)             -0.0001         estimate D2E/DX2                !
 ! D15   D(34,3,4,5)             0.0002         estimate D2E/DX2                !
 ! D16   D(34,3,4,6)          -179.9997         estimate D2E/DX2                !
 ! D17   D(2,3,34,35)           -2.6241         estimate D2E/DX2                !
 ! D18   D(2,3,34,36)          177.3749         estimate D2E/DX2                !
 ! D19   D(4,3,34,35)          177.3755         estimate D2E/DX2                !
 ! D20   D(4,3,34,36)           -2.6255         estimate D2E/DX2                !
 ! D21   D(3,4,6,7)            180.0            estimate D2E/DX2                !
 ! D22   D(3,4,6,8)             -0.0005         estimate D2E/DX2                !
 ! D23   D(5,4,6,7)              0.0            estimate D2E/DX2                !
 ! D24   D(5,4,6,8)            179.9996         estimate D2E/DX2                !
 ! D25   D(4,6,8,9)           -179.999          estimate D2E/DX2                !
 ! D26   D(4,6,8,10)             0.0003         estimate D2E/DX2                !
 ! D27   D(7,6,8,9)              0.0006         estimate D2E/DX2                !
 ! D28   D(7,6,8,10)           179.9999         estimate D2E/DX2                !
 ! D29   D(6,8,9,18)           179.9987         estimate D2E/DX2                !
 ! D30   D(6,8,9,30)           -59.5631         estimate D2E/DX2                !
 ! D31   D(6,8,9,31)            59.5607         estimate D2E/DX2                !
 ! D32   D(10,8,9,18)           -0.0006         estimate D2E/DX2                !
 ! D33   D(10,8,9,30)          120.4375         estimate D2E/DX2                !
 ! D34   D(10,8,9,31)         -120.4386         estimate D2E/DX2                !
 ! D35   D(6,8,10,2)             0.0005         estimate D2E/DX2                !
 ! D36   D(6,8,10,16)         -179.9986         estimate D2E/DX2                !
 ! D37   D(9,8,10,2)           179.9999         estimate D2E/DX2                !
 ! D38   D(9,8,10,16)            0.0008         estimate D2E/DX2                !
 ! D39   D(8,9,18,16)            0.0002         estimate D2E/DX2                !
 ! D40   D(8,9,18,20)         -179.9991         estimate D2E/DX2                !
 ! D41   D(30,9,18,16)        -120.2455         estimate D2E/DX2                !
 ! D42   D(30,9,18,20)          59.7551         estimate D2E/DX2                !
 ! D43   D(31,9,18,16)         120.2459         estimate D2E/DX2                !
 ! D44   D(31,9,18,20)         -59.7534         estimate D2E/DX2                !
 ! D45   D(2,10,16,14)          -0.0004         estimate D2E/DX2                !
 ! D46   D(2,10,16,18)        -179.9997         estimate D2E/DX2                !
 ! D47   D(8,10,16,14)         179.9987         estimate D2E/DX2                !
 ! D48   D(8,10,16,18)          -0.0006         estimate D2E/DX2                !
 ! D49   D(17,11,13,12)          0.0005         estimate D2E/DX2                !
 ! D50   D(17,11,13,14)       -179.9994         estimate D2E/DX2                !
 ! D51   D(20,11,13,12)       -179.9993         estimate D2E/DX2                !
 ! D52   D(20,11,13,14)          0.0008         estimate D2E/DX2                !
 ! D53   D(13,11,17,23)         -0.0006         estimate D2E/DX2                !
 ! D54   D(13,11,17,25)        179.9986         estimate D2E/DX2                !
 ! D55   D(20,11,17,23)        179.9992         estimate D2E/DX2                !
 ! D56   D(20,11,17,25)         -0.0017         estimate D2E/DX2                !
 ! D57   D(13,11,20,18)         -0.0007         estimate D2E/DX2                !
 ! D58   D(13,11,20,24)        179.9983         estimate D2E/DX2                !
 ! D59   D(17,11,20,18)        179.9995         estimate D2E/DX2                !
 ! D60   D(17,11,20,24)         -0.0015         estimate D2E/DX2                !
 ! D61   D(19,12,13,11)         -0.0001         estimate D2E/DX2                !
 ! D62   D(19,12,13,14)        179.9998         estimate D2E/DX2                !
 ! D63   D(32,12,13,11)        179.9999         estimate D2E/DX2                !
 ! D64   D(32,12,13,14)         -0.0002         estimate D2E/DX2                !
 ! D65   D(13,12,19,23)         -0.0002         estimate D2E/DX2                !
 ! D66   D(13,12,19,33)        179.9999         estimate D2E/DX2                !
 ! D67   D(32,12,19,23)        179.9998         estimate D2E/DX2                !
 ! D68   D(32,12,19,33)         -0.0001         estimate D2E/DX2                !
 ! D69   D(11,13,14,16)         -0.0003         estimate D2E/DX2                !
 ! D70   D(12,13,14,16)        179.9998         estimate D2E/DX2                !
 ! D71   D(13,14,16,10)       -179.9995         estimate D2E/DX2                !
 ! D72   D(13,14,16,18)         -0.0003         estimate D2E/DX2                !
 ! D73   D(10,16,18,9)           0.0002         estimate D2E/DX2                !
 ! D74   D(10,16,18,20)        179.9997         estimate D2E/DX2                !
 ! D75   D(14,16,18,9)        -179.9991         estimate D2E/DX2                !
 ! D76   D(14,16,18,20)          0.0004         estimate D2E/DX2                !
 ! D77   D(11,17,23,15)       -179.9999         estimate D2E/DX2                !
 ! D78   D(11,17,23,19)          0.0002         estimate D2E/DX2                !
 ! D79   D(25,17,23,15)          0.0012         estimate D2E/DX2                !
 ! D80   D(25,17,23,19)       -179.9987         estimate D2E/DX2                !
 ! D81   D(11,17,25,24)          0.004          estimate D2E/DX2                !
 ! D82   D(11,17,25,26)       -120.6849         estimate D2E/DX2                !
 ! D83   D(11,17,25,27)        120.6948         estimate D2E/DX2                !
 ! D84   D(23,17,25,24)       -179.9971         estimate D2E/DX2                !
 ! D85   D(23,17,25,26)         59.3141         estimate D2E/DX2                !
 ! D86   D(23,17,25,27)        -59.3063         estimate D2E/DX2                !
 ! D87   D(9,18,20,11)         179.9994         estimate D2E/DX2                !
 ! D88   D(9,18,20,24)           0.0008         estimate D2E/DX2                !
 ! D89   D(16,18,20,11)          0.0001         estimate D2E/DX2                !
 ! D90   D(16,18,20,24)       -179.9985         estimate D2E/DX2                !
 ! D91   D(12,19,23,15)       -179.9997         estimate D2E/DX2                !
 ! D92   D(12,19,23,17)          0.0002         estimate D2E/DX2                !
 ! D93   D(33,19,23,15)          0.0002         estimate D2E/DX2                !
 ! D94   D(33,19,23,17)       -180.0            estimate D2E/DX2                !
 ! D95   D(11,20,24,25)          0.0039         estimate D2E/DX2                !
 ! D96   D(11,20,24,28)        120.9356         estimate D2E/DX2                !
 ! D97   D(11,20,24,29)       -120.9257         estimate D2E/DX2                !
 ! D98   D(18,20,24,25)       -179.9974         estimate D2E/DX2                !
 ! D99   D(18,20,24,28)        -59.0657         estimate D2E/DX2                !
 ! D100  D(18,20,24,29)         59.073          estimate D2E/DX2                !
 ! D101  D(20,24,25,17)         -0.0047         estimate D2E/DX2                !
 ! D102  D(20,24,25,26)        120.5445         estimate D2E/DX2                !
 ! D103  D(20,24,25,27)       -120.5563         estimate D2E/DX2                !
 ! D104  D(28,24,25,17)       -120.3633         estimate D2E/DX2                !
 ! D105  D(28,24,25,26)          0.1859         estimate D2E/DX2                !
 ! D106  D(28,24,25,27)        119.0851         estimate D2E/DX2                !
 ! D107  D(29,24,25,17)        120.3513         estimate D2E/DX2                !
 ! D108  D(29,24,25,26)       -119.0995         estimate D2E/DX2                !
 ! D109  D(29,24,25,27)         -0.2004         estimate D2E/DX2                !
 ! D110  D(3,34,36,37)        -179.9995         estimate D2E/DX2                !
 ! D111  D(35,34,36,37)         -0.0005         estimate D2E/DX2                !
 --------------------------------------------------------------------------------
 Trust Radius=3.00D-01 FncErr=1.00D-07 GrdErr=1.00D-06 EigMax=2.50D+02 EigMin=1.00D-04
 Number of steps in this run=    222 maximum allowed number of steps=    222.
 GradGradGradGradGradGradGradGradGradGradGradGradGradGradGradGradGradGrad

 Leave Link  103 at Tue Feb 11 11:45:05 2025, MaxMem=  8375500800 cpu:               1.1 elap:               0.1
 (Enter /gpfslocalsup/prod/g16/rev-C01/g16/l202.exe)
                          Input orientation:                          
 ---------------------------------------------------------------------
 Center     Atomic      Atomic             Coordinates (Angstroms)
 Number     Number       Type             X           Y           Z
 ---------------------------------------------------------------------
      1          7           0       -1.780243    1.658269   -0.000139
      2          6           0       -1.361315    0.364376   -0.000046
      3          6           0        0.000000    0.000000    0.000000
      4          6           0        0.378508   -1.339599    0.000027
      5          1           0        1.438968   -1.579132    0.000059
      6          6           0       -0.560567   -2.380467    0.000013
      7          1           0       -0.240680   -3.418287    0.000034
      8          6           0       -1.904623   -2.034320   -0.000019
      9          6           0       -3.119609   -2.932801   -0.000019
     10          6           0       -2.302250   -0.687420   -0.000043
     11          6           0       -6.390885   -0.931748   -0.000024
     12          6           0       -6.730794    1.441665   -0.000011
     13          6           0       -5.821983    0.356680   -0.000023
     14          7           0       -4.462392    0.510243   -0.000035
     15          1           0       -9.716976   -0.250279   -0.000009
     16          6           0       -3.754683   -0.611248   -0.000041
     17          6           0       -7.771725   -1.188580   -0.000024
     18          6           0       -4.264068   -1.958731   -0.000030
     19          6           0       -8.094679    1.194556   -0.000003
     20          6           0       -5.621629   -2.117763   -0.000020
     21          1           0       -2.774745    1.845493    0.000067
     22          1           0       -1.121591    2.417980    0.000183
     23          6           0       -8.638728   -0.115193   -0.000011
     24          6           0       -6.554141   -3.302100    0.000021
     25          6           0       -7.986267   -2.686108   -0.000061
     26          1           0       -8.558316   -3.004245   -0.878300
     27          1           0       -8.558456   -3.004297    0.878067
     28          1           0       -6.383217   -3.935268   -0.877603
     29          1           0       -6.383273   -3.935123    0.877761
     30          1           0       -3.138886   -3.589631   -0.879275
     31          1           0       -3.138895   -3.589619    0.879245
     32          1           0       -6.350278    2.459448   -0.000008
     33          1           0       -8.778576    2.039510    0.000008
     34          6           0        0.975392    1.000584    0.000009
     35          8           0        0.784425    2.201195   -0.044696
     36          8           0        2.211529    0.482279    0.057225
     37          1           0        2.801978    1.264750    0.051578
 ---------------------------------------------------------------------
                    Distance matrix (angstroms):
                    1          2          3          4          5
     1  N    0.000000
     2  C    1.360022   0.000000
     3  C    2.432924   1.409237   0.000000
     4  C    3.694241   2.435265   1.392047   0.000000
     5  H    4.565532   3.408637   2.136419   1.087176   0.000000
     6  C    4.218886   2.859259   2.445579   1.401880   2.154130
     7  H    5.304873   3.945169   3.426750   2.168948   2.490724
     8  C    3.694683   2.459456   2.786763   2.386488   3.374433
     9  C    4.782450   3.736706   4.281738   3.843841   4.755317
    10  C    2.403071   1.411252   2.402686   2.758949   3.846019
    11  C    5.288309   5.193892   6.458449   6.781668   7.856571
    12  C    4.955287   5.476482   6.883457   7.633977   8.710352
    13  C    4.246151   4.460675   5.832899   6.428332   7.514571
    14  N    2.917514   3.104506   4.491469   5.182300   6.260315
    15  H    8.162983   8.378238   9.720199  10.154084  11.234809
    16  C    3.008176   2.584580   3.804112   4.196875   5.283068
    17  C    6.633431   6.595834   7.862088   8.151632   9.218969
    18  C    4.387719   3.717903   4.692430   4.683678   5.715655
    19  C    6.331440   6.784349   8.182346   8.844028   9.928936
    20  C    5.386526   4.930648   6.007298   6.050387   7.081112
    21  H    1.011972   2.047313   3.332425   4.481943   5.429865
    22  H    1.005477   2.067549   2.665444   4.045948   4.746932
    23  C    7.084065   7.293197   8.639496   9.099984  10.183471
    24  C    6.884429   6.356767   7.338980   7.205070   8.176699
    25  C    7.575510   7.293521   8.425891   8.472458   9.490018
    26  H    8.273601   7.994733   9.112720   9.132871  10.136476
    27  H    8.273750   7.994866   9.112846   9.132990  10.136591
    28  H    7.296915   6.669074   7.549966   7.295797   8.216340
    29  H    7.296892   6.669055   7.549956   7.295810   8.216356
    30  H    5.491743   4.423457   4.848833   4.267069   5.076621
    31  H    5.491774   4.423462   4.848824   4.267053   5.076599
    32  H    4.639731   5.411015   6.809913   7.727181   8.773966
    33  H    7.008710   7.604067   9.012380   9.760664  10.839408
    34  C    2.833032   2.421768   1.397340   2.415104   2.621038
    35  O    2.621884   2.824907   2.337216   3.564266   3.836835
    36  O    4.161789   3.575247   2.264228   2.585049   2.202166
    37  H    4.599379   4.259853   3.074628   3.557878   3.154063
                    6          7          8          9         10
     6  C    0.000000
     7  H    1.086001   0.000000
     8  C    1.387914   2.164271   0.000000
     9  C    2.617970   2.919577   1.511112   0.000000
    10  C    2.428964   3.421652   1.404367   2.389521   0.000000
    11  C    6.007611   6.633845   4.619763   3.834770   4.095929
    12  C    7.258126   8.108065   5.947638   5.672443   4.913757
    13  C    5.930807   6.738050   4.589400   4.257172   3.671330
    14  N    4.855970   5.766819   3.607906   3.695621   2.469941
    15  H    9.400932   9.991820   8.013468   7.121880   7.427601
    16  C    3.651371   4.497520   2.334064   2.406850   1.454429
    17  C    7.308994   7.854186   5.927745   4.968349   5.492387
    18  C    3.727436   4.279948   2.360656   1.502864   2.337726
    19  C    8.339283   9.108437   6.981578   6.464240   6.090490
    20  C    5.067875   5.535881   3.717942   2.631424   3.614437
    21  H    4.770883   5.841992   3.976187   4.790723   2.576606
    22  H    4.831133   5.902374   4.520632   5.711649   3.322268
    23  C    8.389765   9.024281   7.002230   6.196740   6.362264
    24  C    6.064020   6.314530   4.819262   3.454329   4.991506
    25  C    7.431987   7.780116   6.116471   4.872906   6.025181
    26  H    8.069977   8.374125   6.781133   5.509629   6.728847
    27  H    8.070091   8.374230   6.781252   5.509737   6.728975
    28  H    6.090227   6.226418   4.943841   3.525086   5.288943
    29  H    6.090263   6.226474   4.943871   3.525145   5.288938
    30  H    2.980428   3.033503   2.171518   1.097674   3.145765
    31  H    2.980415   3.033483   2.171517   1.097673   3.145772
    32  H    7.546226   8.477910   6.321218   6.285982   5.127310
    33  H    9.331231  10.133273   7.990452   7.533113   7.027015
    34  C    3.713580   4.583149   4.183913   5.678076   3.686773
    35  O    4.775210   5.712391   5.017226   6.449914   4.227724
    36  O    3.985361   4.607713   4.824858   6.331436   4.663226
    37  H    4.959534   5.584914   5.747923   7.258601   5.465051
                   11         12         13         14         15
    11  C    0.000000
    12  C    2.397630   0.000000
    13  C    1.408438   1.415320   0.000000
    14  N    2.407992   2.452182   1.368236   0.000000
    15  H    3.395185   3.432194   3.942001   5.309336   0.000000
    16  C    2.655613   3.615479   2.282677   1.326120   5.973210
    17  C    1.404522   2.828732   2.487835   3.719904   2.159725
    18  C    2.361788   4.200884   2.790740   2.476927   5.714282
    19  C    2.724717   1.386090   2.422227   3.696186   2.172417
    20  C    1.413643   3.728240   2.482541   2.872324   4.501040
    21  H    4.559554   3.976607   3.391493   2.151986   7.251678
    22  H    6.243888   5.693536   5.132508   3.847130   9.000014
    23  C    2.391560   2.462523   2.855997   4.222908   1.086677
    24  C    2.375967   4.747053   3.731317   4.348491   4.395126
    25  C    2.371291   4.314478   3.733990   4.757558   2.988079
    26  H    3.124799   4.886445   4.422070   5.468050   3.114196
    27  H    3.124879   4.886507   4.422159   5.468162   3.114129
    28  H    3.129111   5.459156   4.416554   4.921612   5.046114
    29  H    3.129030   5.459039   4.416461   4.921543   5.046002
    30  H    4.291028   6.244105   4.852367   4.397010   7.429377
    31  H    4.291018   6.244089   4.852355   4.397004   7.429363
    32  H    3.391439   1.086589   2.168116   2.713579   4.321721
    33  H    3.811751   2.133267   3.401964   4.579094   2.474617
    34  C    7.615507   7.718798   6.827805   5.459847  10.765286
    35  O    7.829585   7.553635   6.859217   5.512749  10.783837
    36  O    8.718043   8.993822   8.034698   6.674225  11.951115
    37  H    9.451773   9.534554   8.671791   7.303631  12.610400
                   16         17         18         19         20
    16  C    0.000000
    17  C    4.058317   0.000000
    18  C    1.440550   3.591210   0.000000
    19  C    4.700691   2.404919   4.961532   0.000000
    20  C    2.398974   2.342284   1.366844   4.133695   0.000000
    21  H    2.644968   5.845974   4.085365   5.359610   4.879769
    22  H    4.013651   7.565154   5.388020   7.079599   6.389312
    23  C    4.909172   1.379802   4.747239   1.418250   3.621212
    24  C    3.882995   2.439155   2.655009   4.753228   1.507393
    25  C    4.712892   1.512818   3.792604   3.882178   2.431980
    26  H    5.438075   2.164886   4.506110   4.314660   3.190824
    27  H    5.438198   2.164906   4.506221   4.314680   3.190914
    28  H    4.327634   3.200374   3.027809   5.478538   2.157196
    29  H    4.327605   3.200282   3.027816   5.478411   2.157174
    30  H    3.165916   5.291628   2.167704   6.944167   3.017200
    31  H    3.165917   5.291618   2.167703   6.944149   3.017190
    32  H    4.020732   3.915178   4.885957   2.154736   4.634845
    33  H    5.680319   3.381466   6.030482   1.087043   5.220080
    34  C    4.997160   9.016900   6.017432   9.072145   7.296901
    35  O    5.339975   9.203275   6.541732   8.936096   7.726119
    36  O    6.065869  10.122273   6.920633  10.330950   8.253597
    37  H    6.819959  10.854708   7.766756  10.897006   9.077512
                   21         22         23         24         25
    21  H    0.000000
    22  H    1.749474   0.000000
    23  C    6.183089   7.932485   0.000000
    24  C    6.386043   7.888721   3.808133   0.000000
    25  C    6.906183   8.554267   2.652416   1.558984   0.000000
    26  H    7.598762   9.245385   3.020675   2.208367   1.095333
    27  H    7.598859   9.245471   3.020660   2.208377   1.095332
    28  H    6.870849   8.295720   4.522220   1.095601   2.213651
    29  H    6.870760   8.295623   4.522104   1.095601   2.213639
    30  H    5.517827   6.397993   6.564532   3.538333   5.008640
    31  H    5.517790   6.397930   6.564518   3.538306   5.008645
    32  H    3.627861   5.228851   3.444674   5.765154   5.399371
    33  H    6.006965   7.666333   2.159237   5.786269   4.791578
    34  C    3.844138   2.531076   9.678650   8.672194   9.690357
    35  O    3.577180   1.918830   9.703786   9.172939  10.040556
    36  O    5.169579   3.854851  10.866845   9.547867  10.678811
    37  H    5.607117   4.089863  11.523744  10.411328  11.489046
                   26         27         28         29         30
    26  H    0.000000
    27  H    1.756367   0.000000
    28  H    2.365980   2.946311   0.000000
    29  H    2.946370   2.365979   1.755364   0.000000
    30  H    5.450954   5.727356   3.262691   3.705751   0.000000
    31  H    5.727281   5.451077   3.705619   3.262723   1.758520
    32  H    5.958084   5.958152   6.454739   6.454619   6.904890
    33  H    5.124393   5.124396   6.496608   6.496473   8.016637
    34  C   10.377941  10.378069   8.904042   8.904022   6.226596
    35  O   10.727456  10.734899   9.472328   9.480571   7.044328
    36  O   11.358724  11.350003   9.708670   9.698316   6.788551
    37  H   12.171495  12.164182  10.595819  10.587261   7.728219
                   31         32         33         34         35
    31  H    0.000000
    32  H    6.904874   0.000000
    33  H    8.016617   2.464342   0.000000
    34  C    6.226586   7.469519   9.809141   0.000000
    35  O    7.055468   7.139516   9.564472   1.216525   0.000000
    36  O    6.773707   8.787321  11.100029   1.341622   2.236444
    37  H    7.716470   9.230047  11.606557   1.846310   2.226369
                   36         37
    36  O    0.000000
    37  H    0.980267   0.000000
 Stoichiometry    C19H14N2O2
 Framework group  C1[X(C19H14N2O2)]
 Deg. of freedom   105
 Full point group                 C1      NOp   1
 Largest Abelian subgroup         C1      NOp   1
 Largest concise Abelian subgroup C1      NOp   1
                         Standard orientation:                         
 ---------------------------------------------------------------------
 Center     Atomic      Atomic             Coordinates (Angstroms)
 Number     Number       Type             X           Y           Z
 ---------------------------------------------------------------------
      1          7           0        2.080480   -1.902356   -0.000364
      2          6           0        2.287411   -0.558170    0.001788
      3          6           0        3.573070    0.018915    0.003578
      4          6           0        3.732801    1.401765    0.005822
      5          1           0        4.741401    1.807567    0.007157
      6          6           0        2.639562    2.279316    0.006405
      7          1           0        2.789615    3.354899    0.008169
      8          6           0        1.368030    1.722982    0.004643
      9          6           0        0.025158    2.415914    0.004743
     10          6           0        1.190591    0.329872    0.002368
     11          6           0       -2.884592   -0.081841   -0.001264
     12          6           0       -2.841131   -2.479074   -0.004979
     13          6           0       -2.117243   -1.262887   -0.002545
     14          7           0       -0.750577   -1.197369   -0.001434
     15          1           0       -6.059176   -1.285700   -0.005469
     16          6           0       -0.231040    0.022741    0.000851
     17          6           0       -4.288725   -0.048808   -0.002237
     18          6           0       -0.949066    1.271589    0.002261
     19          6           0       -4.226974   -2.452932   -0.005957
     20          6           0       -2.314601    1.211794    0.001162
     21          1           0        1.128638   -2.245986   -0.001799
     22          1           0        2.851997   -2.547138   -0.001127
     23          6           0       -4.973194   -1.246869   -0.004615
     24          6           0       -3.424272    2.232021    0.001901
     25          6           0       -4.739652    1.395241   -0.000279
     26          1           0       -5.355804    1.616578    0.877856
     27          1           0       -5.354669    1.619343   -0.878508
     28          1           0       -3.357291    2.882991    0.880589
     29          1           0       -3.356043    2.885573   -0.874772
     30          1           0       -0.099401    3.059867    0.884913
     31          1           0       -0.098126    3.062592   -0.873605
     32          1           0       -2.302969   -3.423031   -0.006060
     33          1           0       -4.767164   -3.396252   -0.007832
     34          6           0        4.695727   -0.813070    0.003092
     35          8           0        4.698902   -2.028837    0.045905
     36          8           0        5.833274   -0.103932   -0.052190
     37          1           0        6.541095   -0.782081   -0.047083
 ---------------------------------------------------------------------
 Rotational constants (GHZ):           0.6803027           0.1469827           0.1211436
 Leave Link  202 at Tue Feb 11 11:45:06 2025, MaxMem=  8375500800 cpu:               1.2 elap:               0.1
 (Enter /gpfslocalsup/prod/g16/rev-C01/g16/l301.exe)
 Standard basis: 6-31+G(d,p) (6D, 7F)
 Ernie: Thresh=  0.10000D-02 Tol=  0.10000D-05 Strict=F.
 There are   507 symmetry adapted cartesian basis functions of A   symmetry.
 There are   507 symmetry adapted basis functions of A   symmetry.
   507 basis functions,   834 primitive gaussians,   507 cartesian basis functions
    79 alpha electrons       79 beta electrons
       nuclear repulsion energy      1782.2142284692 Hartrees.
 IExCor= 1009 DFT=T Ex+Corr=PBE1PBE ExCW=0 ScaHFX=  0.250000
 ScaDFX=  0.750000  0.750000  1.000000  1.000000 ScalE2=  1.000000  1.000000
 IRadAn=      5 IRanWt=     -1 IRanGd=            0 ICorTp=0 IEmpDi=  4
 NAtoms=   37 NActive=   37 NUniq=   37 SFac= 1.00D+00 NAtFMM=   60 NAOKFM=F Big=F
 Integral buffers will be    131072 words long.
 Raffenetti 2 integral format.
 Two-electron integral symmetry is turned on.
 ------------------------------------------------------------------------------
 Polarizable Continuum Model (PCM)
 =================================
 Model                : PCM.
 Atomic radii         : UFF (Universal Force Field).
 Polarization charges : Total charges.
 Charge compensation  : None.
 Solution method      : On-the-fly selection.
 Cavity type          : Scaled VdW (van der Waals Surface) (Alpha=1.100).
 Cavity algorithm     : GePol (No added spheres)
                        Default sphere list used, NSphG=   37.
                        Lebedev-Laikov grids with approx.  5.0 points / Ang**2.
                        Smoothing algorithm: York/Karplus (Gamma=1.0000).
                        Polarization charges: spherical gaussians, with
                                              point-specific exponents (IZeta= 3).
                        Self-potential: point-specific (ISelfS= 7).
                        Self-field    : sphere-specific E.n sum rule (ISelfD= 2).
 1st derivatives      : Analytical E(r).r(x)/FMM algorithm (CHGder, D1EAlg=3).
                        Cavity 1st derivative terms included.
 Solvent              : Acetonitrile, Eps=  35.688000 Eps(inf)=   1.806874
 ------------------------------------------------------------------------------
 GePol: Number of generator spheres                  =      37
 GePol: Total number of spheres                      =      37
 GePol: Number of exposed spheres                    =      37 (100.00%)
 GePol: Number of points                             =    2830
 GePol: Average weight of points                     =       0.12
 GePol: Minimum weight of points                     =   0.35D-09
 GePol: Maximum weight of points                     =    0.20577
 GePol: Number of points with low weight             =     162
 GePol: Fraction of low-weight points (<1% of avg)   =       5.72%
 GePol: Cavity surface area                          =    350.999 Ang**2
 GePol: Cavity volume                                =    389.996 Ang**3
 Leave Link  301 at Tue Feb 11 11:45:06 2025, MaxMem=  8375500800 cpu:               6.0 elap:               0.2
 (Enter /gpfslocalsup/prod/g16/rev-C01/g16/l302.exe)
 NPDir=0 NMtPBC=     1 NCelOv=     1 NCel=       1 NClECP=     1 NCelD=      1
         NCelK=      1 NCelE2=     1 NClLst=     1 CellRange=     0.0.
 One-electron integrals computed using PRISM.
 One-electron integral symmetry used in STVInt
 NBasis=   507 RedAO= T EigKep=  1.02D-06  NBF=   507
 NBsUse=   497 1.00D-06 EigRej=  8.95D-07 NBFU=   497
 Precomputing XC quadrature grid using
 IXCGrd= 4 IRadAn=           5 IRanWt=          -1 IRanGd=           0 AccXCQ= 0.00D+00.
 Generated NRdTot=       0 NPtTot=           0 NUsed=           0 NTot=          32
 NSgBfM=   502   502   502   502   502 MxSgAt=    37 MxSgA2=    37.
 Leave Link  302 at Tue Feb 11 11:45:08 2025, MaxMem=  8375500800 cpu:              23.3 elap:               0.7
 (Enter /gpfslocalsup/prod/g16/rev-C01/g16/l303.exe)
 DipDrv:  MaxL=1.
 Leave Link  303 at Tue Feb 11 11:45:08 2025, MaxMem=  8375500800 cpu:               3.0 elap:               0.2
 (Enter /gpfslocalsup/prod/g16/rev-C01/g16/l401.exe)
 ExpMin= 4.38D-02 ExpMax= 5.48D+03 ExpMxC= 8.25D+02 IAcc=3 IRadAn=         5 AccDes= 0.00D+00
 Harris functional with IExCor= 1009 and IRadAn=       5 diagonalized for initial guess.
 HarFok:  IExCor= 1009 AccDes= 0.00D+00 IRadAn=         5 IDoV= 1 UseB2=F ITyADJ=14
 ICtDFT=  3500011 ScaDFX=  1.000000  1.000000  1.000000  1.000000
 FoFCou: FMM=F IPFlag=           0 FMFlag=      100000 FMFlg1=           0
         NFxFlg=           0 DoJE=T BraDBF=F KetDBF=T FulRan=T
         wScrn=  0.000000 ICntrl=       500 IOpCl=  0 I1Cent=   200000004 NGrid=           0
         NMat0=    1 NMatS0=      1 NMatT0=    0 NMatD0=    1 NMtDS0=    0 NMtDT0=    0
 Petite list used in FoFCou.
 Harris En= -991.601033988310    
 JPrj=0 DoOrth=F DoCkMO=F.
 Leave Link  401 at Tue Feb 11 11:45:10 2025, MaxMem=  8375500800 cpu:              45.0 elap:               1.3
 (Enter /gpfslocalsup/prod/g16/rev-C01/g16/l502.exe)
 Integral symmetry usage will be decided dynamically.
 Closed shell SCF:
 Using DIIS extrapolation, IDIIS=  1040.
 NGot=  8375500800 LenX=  8374960552 LenY=  8374702996
 Requested convergence on RMS density matrix=1.00D-08 within 128 cycles.
 Requested convergence on MAX density matrix=1.00D-06.
 Requested convergence on             energy=1.00D-06.
 No special actions if energy rises.
 Fock matrices will be formed incrementally for  20 cycles.

 Cycle   1  Pass 1  IDiag  1:
 FoFJK:  IHMeth= 1 ICntrl=       0 DoSepK=F KAlg= 0 I1Cent=           0 FoldK=F
 IRaf= 780000000 NMat=       1 IRICut=       1 DoRegI=T DoRafI=F ISym2E= 0 IDoP0=0 IntGTp=1.
 FoFCou: FMM=F IPFlag=           0 FMFlag=      100000 FMFlg1=           0
         NFxFlg=           0 DoJE=F BraDBF=F KetDBF=F FulRan=T
         wScrn=  0.000000 ICntrl=         0 IOpCl=  0 I1Cent=           0 NGrid=           0
         NMat0=    1 NMatS0=      1 NMatT0=    0 NMatD0=    1 NMtDS0=    0 NMtDT0=    0
 Symmetry not used in FoFCou.
 Inv3:  Mode=1 IEnd=    24026700.
 Iteration    1 A*A^-1 deviation from unit magnitude is 3.11D-15 for   1071.
 Iteration    1 A*A^-1 deviation from orthogonality  is 2.44D-15 for   2296   1989.
 Iteration    1 A^-1*A deviation from unit magnitude is 3.11D-15 for   2118.
 Iteration    1 A^-1*A deviation from orthogonality  is 1.75D-15 for   1559    585.
 E= -991.042494596516    
 DIIS: error= 2.34D-02 at cycle   1 NSaved=   1.
 NSaved= 1 IEnMin= 1 EnMin= -991.042494596516     IErMin= 1 ErrMin= 2.34D-02
 ErrMax= 2.34D-02  0.00D+00 EMaxC= 1.00D-01 BMatC= 4.09D-01 BMatP= 4.09D-01
 IDIUse=3 WtCom= 7.66D-01 WtEn= 2.34D-01
 Coeff-Com:  0.100D+01
 Coeff-En:   0.100D+01
 Coeff:      0.100D+01
 Gap=     0.155 Goal=   None    Shift=    0.000
 GapD=    0.155 DampG=1.000 DampE=0.500 DampFc=0.5000 IDamp=-1.
 Damping current iteration by 5.00D-01
 RMSDP=3.26D-02 MaxDP=1.97D+00              OVMax= 1.65D-01

 Cycle   2  Pass 1  IDiag  1:
 RMSU=  1.00D-02    CP:  7.98D-01
 E= -991.220887017416     Delta-E=       -0.178392420901 Rises=F Damp=T
 DIIS: error= 6.87D-03 at cycle   2 NSaved=   2.
 NSaved= 2 IEnMin= 2 EnMin= -991.220887017416     IErMin= 2 ErrMin= 6.87D-03
 ErrMax= 6.87D-03  0.00D+00 EMaxC= 1.00D-01 BMatC= 3.50D-02 BMatP= 4.09D-01
 IDIUse=3 WtCom= 9.31D-01 WtEn= 6.87D-02
 Coeff-Com: -0.307D-02 0.100D+01
 Coeff-En:   0.000D+00 0.100D+01
 Coeff:     -0.286D-02 0.100D+01
 Gap=     0.161 Goal=   None    Shift=    0.000
 RMSDP=1.51D-02 MaxDP=1.18D+00 DE=-1.78D-01 OVMax= 1.13D-01

 Cycle   3  Pass 1  IDiag  1:
 RMSU=  7.44D-03    CP:  6.08D-01  5.14D-01
 E= -991.397004959167     Delta-E=       -0.176117941750 Rises=F Damp=F
 DIIS: error= 5.06D-03 at cycle   3 NSaved=   3.
 NSaved= 3 IEnMin= 3 EnMin= -991.397004959167     IErMin= 3 ErrMin= 5.06D-03
 ErrMax= 5.06D-03  0.00D+00 EMaxC= 1.00D-01 BMatC= 2.91D-02 BMatP= 3.50D-02
 IDIUse=3 WtCom= 9.49D-01 WtEn= 5.06D-02
 Coeff-Com: -0.768D-01 0.509D+00 0.567D+00
 Coeff-En:   0.000D+00 0.000D+00 0.100D+01
 Coeff:     -0.729D-01 0.484D+00 0.589D+00
 Gap=     0.158 Goal=   None    Shift=    0.000
 RMSDP=2.89D-03 MaxDP=1.46D-01 DE=-1.76D-01 OVMax= 5.07D-02

 Cycle   4  Pass 1  IDiag  1:
 RMSU=  2.76D-03    CP:  6.09D-01  5.88D-01  9.43D-01
 E= -991.415801056921     Delta-E=       -0.018796097754 Rises=F Damp=F
 DIIS: error= 2.46D-03 at cycle   4 NSaved=   4.
 NSaved= 4 IEnMin= 4 EnMin= -991.415801056921     IErMin= 4 ErrMin= 2.46D-03
 ErrMax= 2.46D-03  0.00D+00 EMaxC= 1.00D-01 BMatC= 6.71D-03 BMatP= 2.91D-02
 IDIUse=3 WtCom= 9.75D-01 WtEn= 2.46D-02
 Coeff-Com: -0.382D-01 0.122D+00 0.355D+00 0.561D+00
 Coeff-En:   0.000D+00 0.000D+00 0.209D+00 0.791D+00
 Coeff:     -0.373D-01 0.119D+00 0.352D+00 0.567D+00
 Gap=     0.156 Goal=   None    Shift=    0.000
 RMSDP=1.36D-03 MaxDP=1.21D-01 DE=-1.88D-02 OVMax= 2.32D-02

 Cycle   5  Pass 1  IDiag  1:
 RMSU=  6.35D-04    CP:  6.00D-01  5.84D-01  9.49D-01  6.26D-01
 E= -991.421263417179     Delta-E=       -0.005462360258 Rises=F Damp=F
 DIIS: error= 8.78D-04 at cycle   5 NSaved=   5.
 NSaved= 5 IEnMin= 5 EnMin= -991.421263417179     IErMin= 5 ErrMin= 8.78D-04
 ErrMax= 8.78D-04  0.00D+00 EMaxC= 1.00D-01 BMatC= 3.84D-04 BMatP= 6.71D-03
 IDIUse=3 WtCom= 9.91D-01 WtEn= 8.78D-03
 Coeff-Com: -0.161D-01 0.375D-01 0.160D+00 0.314D+00 0.505D+00
 Coeff-En:   0.000D+00 0.000D+00 0.000D+00 0.000D+00 0.100D+01
 Coeff:     -0.160D-01 0.372D-01 0.158D+00 0.311D+00 0.509D+00
 Gap=     0.157 Goal=   None    Shift=    0.000
 RMSDP=2.39D-04 MaxDP=1.12D-02 DE=-5.46D-03 OVMax= 5.12D-03

 Cycle   6  Pass 1  IDiag  1:
 RMSU=  1.77D-04    CP:  5.97D-01  5.88D-01  9.48D-01  6.23D-01  9.34D-01
 E= -991.421559720731     Delta-E=       -0.000296303552 Rises=F Damp=F
 DIIS: error= 2.09D-04 at cycle   6 NSaved=   6.
 NSaved= 6 IEnMin= 6 EnMin= -991.421559720731     IErMin= 6 ErrMin= 2.09D-04
 ErrMax= 2.09D-04  0.00D+00 EMaxC= 1.00D-01 BMatC= 2.25D-05 BMatP= 3.84D-04
 IDIUse=3 WtCom= 9.98D-01 WtEn= 2.09D-03
 Coeff-Com: -0.506D-02 0.937D-02 0.477D-01 0.105D+00 0.257D+00 0.586D+00
 Coeff-En:   0.000D+00 0.000D+00 0.000D+00 0.000D+00 0.000D+00 0.100D+01
 Coeff:     -0.505D-02 0.935D-02 0.476D-01 0.105D+00 0.257D+00 0.587D+00
 Gap=     0.157 Goal=   None    Shift=    0.000
 RMSDP=8.59D-05 MaxDP=4.91D-03 DE=-2.96D-04 OVMax= 1.22D-03

 Cycle   7  Pass 1  IDiag  1:
 RMSU=  4.73D-05    CP:  5.98D-01  5.86D-01  9.50D-01  6.30D-01  8.80D-01
                    CP:  7.70D-01
 E= -991.421578644409     Delta-E=       -0.000018923678 Rises=F Damp=F
 DIIS: error= 3.75D-05 at cycle   7 NSaved=   7.
 NSaved= 7 IEnMin= 7 EnMin= -991.421578644409     IErMin= 7 ErrMin= 3.75D-05
 ErrMax= 3.75D-05  0.00D+00 EMaxC= 1.00D-01 BMatC= 1.71D-06 BMatP= 2.25D-05
 IDIUse=1 WtCom= 1.00D+00 WtEn= 0.00D+00
 Coeff-Com: -0.188D-02 0.302D-02 0.166D-01 0.387D-01 0.111D+00 0.314D+00
 Coeff-Com:  0.519D+00
 Coeff:     -0.188D-02 0.302D-02 0.166D-01 0.387D-01 0.111D+00 0.314D+00
 Coeff:      0.519D+00
 Gap=     0.157 Goal=   None    Shift=    0.000
 RMSDP=1.82D-05 MaxDP=8.25D-04 DE=-1.89D-05 OVMax= 3.63D-04

 Cycle   8  Pass 1  IDiag  1:
 RMSU=  1.46D-05    CP:  5.98D-01  5.86D-01  9.51D-01  6.30D-01  8.76D-01
                    CP:  7.80D-01  8.45D-01
 E= -991.421580199313     Delta-E=       -0.000001554904 Rises=F Damp=F
 DIIS: error= 9.61D-06 at cycle   8 NSaved=   8.
 NSaved= 8 IEnMin= 8 EnMin= -991.421580199313     IErMin= 8 ErrMin= 9.61D-06
 ErrMax= 9.61D-06  0.00D+00 EMaxC= 1.00D-01 BMatC= 9.13D-08 BMatP= 1.71D-06
 IDIUse=1 WtCom= 1.00D+00 WtEn= 0.00D+00
 Coeff-Com: -0.311D-03 0.379D-03 0.212D-02 0.561D-02 0.220D-01 0.740D-01
 Coeff-Com:  0.216D+00 0.681D+00
 Coeff:     -0.311D-03 0.379D-03 0.212D-02 0.561D-02 0.220D-01 0.740D-01
 Coeff:      0.216D+00 0.681D+00
 Gap=     0.157 Goal=   None    Shift=    0.000
 RMSDP=8.09D-06 MaxDP=6.21D-04 DE=-1.55D-06 OVMax= 1.31D-04

 Cycle   9  Pass 1  IDiag  1:
 RMSU=  4.56D-06    CP:  5.98D-01  5.86D-01  9.51D-01  6.30D-01  8.82D-01
                    CP:  7.87D-01  9.14D-01  8.11D-01
 E= -991.421580268550     Delta-E=       -0.000000069236 Rises=F Damp=F
 DIIS: error= 5.16D-06 at cycle   9 NSaved=   9.
 NSaved= 9 IEnMin= 9 EnMin= -991.421580268550     IErMin= 9 ErrMin= 5.16D-06
 ErrMax= 5.16D-06  0.00D+00 EMaxC= 1.00D-01 BMatC= 2.94D-08 BMatP= 9.13D-08
 IDIUse=1 WtCom= 1.00D+00 WtEn= 0.00D+00
 Coeff-Com:  0.663D-04-0.173D-03-0.100D-02-0.203D-02-0.209D-02 0.537D-03
 Coeff-Com:  0.506D-01 0.407D+00 0.547D+00
 Coeff:      0.663D-04-0.173D-03-0.100D-02-0.203D-02-0.209D-02 0.537D-03
 Coeff:      0.506D-01 0.407D+00 0.547D+00
 Gap=     0.157 Goal=   None    Shift=    0.000
 RMSDP=3.39D-06 MaxDP=2.21D-04 DE=-6.92D-08 OVMax= 5.09D-05

 Cycle  10  Pass 1  IDiag  1:
 RMSU=  1.53D-06    CP:  5.98D-01  5.86D-01  9.51D-01  6.30D-01  8.82D-01
                    CP:  7.91D-01  9.22D-01  9.28D-01  7.29D-01
 E= -991.421580297532     Delta-E=       -0.000000028982 Rises=F Damp=F
 DIIS: error= 1.15D-06 at cycle  10 NSaved=  10.
 NSaved=10 IEnMin=10 EnMin= -991.421580297532     IErMin=10 ErrMin= 1.15D-06
 ErrMax= 1.15D-06  0.00D+00 EMaxC= 1.00D-01 BMatC= 1.22D-09 BMatP= 2.94D-08
 IDIUse=1 WtCom= 1.00D+00 WtEn= 0.00D+00
 Coeff-Com:  0.467D-04-0.995D-04-0.576D-03-0.127D-02-0.209D-02-0.353D-02
 Coeff-Com:  0.105D-01 0.154D+00 0.263D+00 0.581D+00
 Coeff:      0.467D-04-0.995D-04-0.576D-03-0.127D-02-0.209D-02-0.353D-02
 Coeff:      0.105D-01 0.154D+00 0.263D+00 0.581D+00
 Gap=     0.157 Goal=   None    Shift=    0.000
 RMSDP=6.27D-07 MaxDP=4.60D-05 DE=-2.90D-08 OVMax= 1.31D-05

 Cycle  11  Pass 1  IDiag  1:
 RMSU=  4.15D-07    CP:  5.98D-01  5.86D-01  9.51D-01  6.30D-01  8.82D-01
                    CP:  7.91D-01  9.23D-01  9.20D-01  7.90D-01  8.03D-01
 E= -991.421580298623     Delta-E=       -0.000000001090 Rises=F Damp=F
 DIIS: error= 4.63D-07 at cycle  11 NSaved=  11.
 NSaved=11 IEnMin=11 EnMin= -991.421580298623     IErMin=11 ErrMin= 4.63D-07
 ErrMax= 4.63D-07  0.00D+00 EMaxC= 1.00D-01 BMatC= 2.20D-10 BMatP= 1.22D-09
 IDIUse=1 WtCom= 1.00D+00 WtEn= 0.00D+00
 Coeff-Com:  0.158D-04-0.280D-04-0.167D-03-0.407D-03-0.845D-03-0.206D-02
 Coeff-Com: -0.299D-02 0.210D-01 0.619D-01 0.327D+00 0.597D+00
 Coeff:      0.158D-04-0.280D-04-0.167D-03-0.407D-03-0.845D-03-0.206D-02
 Coeff:     -0.299D-02 0.210D-01 0.619D-01 0.327D+00 0.597D+00
 Gap=     0.157 Goal=   None    Shift=    0.000
 RMSDP=3.18D-07 MaxDP=1.36D-05 DE=-1.09D-09 OVMax= 5.51D-06

 Cycle  12  Pass 1  IDiag  1:
 RMSU=  1.39D-07    CP:  5.98D-01  5.86D-01  9.51D-01  6.30D-01  8.82D-01
                    CP:  7.92D-01  9.25D-01  9.31D-01  7.79D-01  8.73D-01
                    CP:  8.91D-01
 E= -991.421580298846     Delta-E=       -0.000000000223 Rises=F Damp=F
 DIIS: error= 8.24D-08 at cycle  12 NSaved=  12.
 NSaved=12 IEnMin=12 EnMin= -991.421580298846     IErMin=12 ErrMin= 8.24D-08
 ErrMax= 8.24D-08  0.00D+00 EMaxC= 1.00D-01 BMatC= 1.05D-11 BMatP= 2.20D-10
 IDIUse=1 WtCom= 1.00D+00 WtEn= 0.00D+00
 Coeff-Com:  0.223D-05-0.238D-05-0.167D-04-0.541D-04-0.162D-03-0.529D-03
 Coeff-Com: -0.245D-02-0.541D-02 0.148D-02 0.766D-01 0.239D+00 0.692D+00
 Coeff:      0.223D-05-0.238D-05-0.167D-04-0.541D-04-0.162D-03-0.529D-03
 Coeff:     -0.245D-02-0.541D-02 0.148D-02 0.766D-01 0.239D+00 0.692D+00
 Gap=     0.157 Goal=   None    Shift=    0.000
 RMSDP=6.97D-08 MaxDP=3.54D-06 DE=-2.23D-10 OVMax= 1.62D-06

 Cycle  13  Pass 1  IDiag  1:
 RMSU=  4.83D-08    CP:  5.98D-01  5.86D-01  9.51D-01  6.30D-01  8.82D-01
                    CP:  7.92D-01  9.25D-01  9.31D-01  7.86D-01  8.77D-01
                    CP:  9.44D-01  1.04D+00
 E= -991.421580298848     Delta-E=       -0.000000000002 Rises=F Damp=F
 DIIS: error= 4.94D-08 at cycle  13 NSaved=  13.
 NSaved=13 IEnMin=13 EnMin= -991.421580298848     IErMin=13 ErrMin= 4.94D-08
 ErrMax= 4.94D-08  0.00D+00 EMaxC= 1.00D-01 BMatC= 2.52D-12 BMatP= 1.05D-11
 IDIUse=1 WtCom= 1.00D+00 WtEn= 0.00D+00
 Coeff-Com: -0.597D-06 0.182D-05 0.925D-05 0.165D-04 0.114D-04-0.309D-04
 Coeff-Com: -0.916D-03-0.476D-02-0.563D-02 0.175D-02 0.576D-01 0.382D+00
 Coeff-Com:  0.570D+00
 Coeff:     -0.597D-06 0.182D-05 0.925D-05 0.165D-04 0.114D-04-0.309D-04
 Coeff:     -0.916D-03-0.476D-02-0.563D-02 0.175D-02 0.576D-01 0.382D+00
 Coeff:      0.570D+00
 Gap=     0.157 Goal=   None    Shift=    0.000
 RMSDP=2.59D-08 MaxDP=1.41D-06 DE=-2.05D-12 OVMax= 5.62D-07

 Cycle  14  Pass 1  IDiag  1:
 RMSU=  1.38D-08    CP:  5.98D-01  5.86D-01  9.51D-01  6.30D-01  8.82D-01
                    CP:  7.92D-01  9.25D-01  9.31D-01  7.86D-01  8.84D-01
                    CP:  9.51D-01  1.06D+00  6.67D-01
 E= -991.421580298851     Delta-E=       -0.000000000003 Rises=F Damp=F
 DIIS: error= 1.73D-08 at cycle  14 NSaved=  14.
 NSaved=14 IEnMin=14 EnMin= -991.421580298851     IErMin=14 ErrMin= 1.73D-08
 ErrMax= 1.73D-08  0.00D+00 EMaxC= 1.00D-01 BMatC= 1.98D-13 BMatP= 2.52D-12
 IDIUse=1 WtCom= 1.00D+00 WtEn= 0.00D+00
 Coeff-Com: -0.538D-06 0.120D-05 0.642D-05 0.140D-04 0.214D-04 0.341D-04
 Coeff-Com: -0.236D-03-0.193D-02-0.301D-02-0.695D-02 0.668D-02 0.127D+00
 Coeff-Com:  0.280D+00 0.598D+00
 Coeff:     -0.538D-06 0.120D-05 0.642D-05 0.140D-04 0.214D-04 0.341D-04
 Coeff:     -0.236D-03-0.193D-02-0.301D-02-0.695D-02 0.668D-02 0.127D+00
 Coeff:      0.280D+00 0.598D+00
 Gap=     0.157 Goal=   None    Shift=    0.000
 RMSDP=6.27D-09 MaxDP=3.31D-07 DE=-3.41D-12 OVMax= 1.86D-07

 Error on total polarization charges =  0.01930
 SCF Done:  E(RPBE1PBE) =  -991.421580299     A.U. after   14 cycles
            NFock= 14  Conv=0.63D-08     -V/T= 2.0083
 KE= 9.832226046876D+02 PE=-5.870313557040D+03 EE= 2.113455143585D+03
 Leave Link  502 at Tue Feb 11 11:45:55 2025, MaxMem=  8375500800 cpu:            1747.5 elap:              45.1
 (Enter /gpfslocalsup/prod/g16/rev-C01/g16/l601.exe)
 Copying SCF densities to generalized density rwf, IOpCl= 0 IROHF=0.

 **********************************************************************

            Population analysis using the SCF Density.

 **********************************************************************

 Orbital symmetries:
       Occupied  (A) (A) (A) (A) (A) (A) (A) (A) (A) (A) (A) (A)
                 (A) (A) (A) (A) (A) (A) (A) (A) (A) (A) (A) (A)
                 (A) (A) (A) (A) (A) (A) (A) (A) (A) (A) (A) (A)
                 (A) (A) (A) (A) (A) (A) (A) (A) (A) (A) (A) (A)
                 (A) (A) (A) (A) (A) (A) (A) (A) (A) (A) (A) (A)
                 (A) (A) (A) (A) (A) (A) (A) (A) (A) (A) (A) (A)
                 (A) (A) (A) (A) (A) (A) (A)
       Virtual   (A) (A) (A) (A) (A) (A) (A) (A) (A) (A) (A) (A)
                 (A) (A) (A) (A) (A) (A) (A) (A) (A) (A) (A) (A)
                 (A) (A) (A) (A) (A) (A) (A) (A) (A) (A) (A) (A)
                 (A) (A) (A) (A) (A) (A) (A) (A) (A) (A) (A) (A)
                 (A) (A) (A) (A) (A) (A) (A) (A) (A) (A) (A) (A)
                 (A) (A) (A) (A) (A) (A) (A) (A) (A) (A) (A) (A)
                 (A) (A) (A) (A) (A) (A) (A) (A) (A) (A) (A) (A)
                 (A) (A) (A) (A) (A) (A) (A) (A) (A) (A) (A) (A)
                 (A) (A) (A) (A) (A) (A) (A) (A) (A) (A) (A) (A)
                 (A) (A) (A) (A) (A) (A) (A) (A) (A) (A) (A) (A)
                 (A) (A) (A) (A) (A) (A) (A) (A) (A) (A) (A) (A)
                 (A) (A) (A) (A) (A) (A) (A) (A) (A) (A) (A) (A)
                 (A) (A) (A) (A) (A) (A) (A) (A) (A) (A) (A) (A)
                 (A) (A) (A) (A) (A) (A) (A) (A) (A) (A) (A) (A)
                 (A) (A) (A) (A) (A) (A) (A) (A) (A) (A) (A) (A)
                 (A) (A) (A) (A) (A) (A) (A) (A) (A) (A) (A) (A)
                 (A) (A) (A) (A) (A) (A) (A) (A) (A) (A) (A) (A)
                 (A) (A) (A) (A) (A) (A) (A) (A) (A) (A) (A) (A)
                 (A) (A) (A) (A) (A) (A) (A) (A) (A) (A) (A) (A)
                 (A) (A) (A) (A) (A) (A) (A) (A) (A) (A) (A) (A)
                 (A) (A) (A) (A) (A) (A) (A) (A) (A) (A) (A) (A)
                 (A) (A) (A) (A) (A) (A) (A) (A) (A) (A) (A) (A)
                 (A) (A) (A) (A) (A) (A) (A) (A) (A) (A) (A) (A)
                 (A) (A) (A) (A) (A) (A) (A) (A) (A) (A) (A) (A)
                 (A) (A) (A) (A) (A) (A) (A) (A) (A) (A) (A) (A)
                 (A) (A) (A) (A) (A) (A) (A) (A) (A) (A) (A) (A)
                 (A) (A) (A) (A) (A) (A) (A) (A) (A) (A) (A) (A)
                 (A) (A) (A) (A) (A) (A) (A) (A) (A) (A) (A) (A)
                 (A) (A) (A) (A) (A) (A) (A) (A) (A) (A) (A) (A)
                 (A) (A) (A) (A) (A) (A) (A) (A) (A) (A) (A) (A)
                 (A) (A) (A) (A) (A) (A) (A) (A) (A) (A) (A) (A)
                 (A) (A) (A) (A) (A) (A) (A) (A) (A) (A) (A) (A)
                 (A) (A) (A) (A) (A) (A) (A) (A) (A) (A) (A) (A)
                 (A) (A) (A) (A) (A) (A) (A) (A) (A) (A) (A) (A)
                 (A) (A) (A) (A) (A) (A) (A) (A) (A) (A)
 The electronic state is 1-A.
 Alpha  occ. eigenvalues --  -19.28309 -19.23043 -14.41587 -14.40793 -10.37266
 Alpha  occ. eigenvalues --  -10.30836 -10.29182 -10.28171 -10.27004 -10.26824
 Alpha  occ. eigenvalues --  -10.26077 -10.25889 -10.25772 -10.25601 -10.25260
 Alpha  occ. eigenvalues --  -10.25197 -10.25038 -10.25003 -10.24762 -10.24646
 Alpha  occ. eigenvalues --  -10.24643 -10.24500 -10.24437  -1.15425  -1.05952
 Alpha  occ. eigenvalues --   -0.99002  -0.96256  -0.90805  -0.90341  -0.86808
 Alpha  occ. eigenvalues --   -0.84312  -0.80098  -0.78913  -0.76170  -0.75451
 Alpha  occ. eigenvalues --   -0.74346  -0.69611  -0.67790  -0.64853  -0.64119
 Alpha  occ. eigenvalues --   -0.62234  -0.61105  -0.60227  -0.56428  -0.54524
 Alpha  occ. eigenvalues --   -0.53686  -0.52403  -0.51961  -0.50700  -0.49472
 Alpha  occ. eigenvalues --   -0.49195  -0.48651  -0.46959  -0.46953  -0.46283
 Alpha  occ. eigenvalues --   -0.45634  -0.44747  -0.44200  -0.42567  -0.42515
 Alpha  occ. eigenvalues --   -0.41895  -0.40829  -0.39254  -0.39136  -0.38569
 Alpha  occ. eigenvalues --   -0.38131  -0.37527  -0.36476  -0.35651  -0.35593
 Alpha  occ. eigenvalues --   -0.34963  -0.33474  -0.31242  -0.30818  -0.29321
 Alpha  occ. eigenvalues --   -0.28261  -0.25875  -0.23718  -0.22207
 Alpha virt. eigenvalues --   -0.06535  -0.04710  -0.02385   0.00079   0.00975
 Alpha virt. eigenvalues --    0.01784   0.01865   0.02454   0.02982   0.03513
 Alpha virt. eigenvalues --    0.03850   0.04116   0.04551   0.04951   0.05206
 Alpha virt. eigenvalues --    0.05753   0.05995   0.06651   0.07034   0.07152
 Alpha virt. eigenvalues --    0.07658   0.08398   0.08617   0.09188   0.09297
 Alpha virt. eigenvalues --    0.09981   0.10325   0.10735   0.11015   0.11373
 Alpha virt. eigenvalues --    0.11931   0.12201   0.12298   0.13330   0.14197
 Alpha virt. eigenvalues --    0.14383   0.15018   0.15203   0.15333   0.15634
 Alpha virt. eigenvalues --    0.16154   0.16893   0.17049   0.17288   0.17329
 Alpha virt. eigenvalues --    0.17687   0.17980   0.18229   0.18383   0.19208
 Alpha virt. eigenvalues --    0.19450   0.19804   0.19999   0.20051   0.20239
 Alpha virt. eigenvalues --    0.20812   0.20869   0.21465   0.21620   0.21705
 Alpha virt. eigenvalues --    0.21848   0.21947   0.22620   0.22743   0.23281
 Alpha virt. eigenvalues --    0.23783   0.23854   0.24174   0.24609   0.25217
 Alpha virt. eigenvalues --    0.25565   0.25685   0.26050   0.26174   0.26424
 Alpha virt. eigenvalues --    0.26712   0.26817   0.26881   0.27893   0.27922
 Alpha virt. eigenvalues --    0.28077   0.28431   0.28433   0.29186   0.29613
 Alpha virt. eigenvalues --    0.29839   0.30170   0.30291   0.30461   0.30667
 Alpha virt. eigenvalues --    0.31376   0.31774   0.32179   0.32461   0.32925
 Alpha virt. eigenvalues --    0.33346   0.33643   0.34371   0.34488   0.34884
 Alpha virt. eigenvalues --    0.35286   0.35528   0.36181   0.36809   0.37420
 Alpha virt. eigenvalues --    0.37740   0.37845   0.38702   0.38973   0.39961
 Alpha virt. eigenvalues --    0.40497   0.41108   0.42198   0.42403   0.42947
 Alpha virt. eigenvalues --    0.43523   0.44758   0.45953   0.46815   0.47270
 Alpha virt. eigenvalues --    0.49074   0.50225   0.51241   0.51732   0.52816
 Alpha virt. eigenvalues --    0.53725   0.56709   0.59267   0.61329   0.63969
 Alpha virt. eigenvalues --    0.65021   0.66682   0.67277   0.68930   0.69221
 Alpha virt. eigenvalues --    0.70367   0.70943   0.71378   0.71777   0.72325
 Alpha virt. eigenvalues --    0.73440   0.73665   0.74413   0.74688   0.75428
 Alpha virt. eigenvalues --    0.75988   0.76170   0.76767   0.77001   0.77036
 Alpha virt. eigenvalues --    0.77712   0.77849   0.78519   0.78804   0.79566
 Alpha virt. eigenvalues --    0.79912   0.80384   0.81652   0.81758   0.83220
 Alpha virt. eigenvalues --    0.84377   0.85338   0.85420   0.86541   0.87399
 Alpha virt. eigenvalues --    0.88512   0.89565   0.90790   0.91332   0.91951
 Alpha virt. eigenvalues --    0.92719   0.93505   0.94544   0.95142   0.96640
 Alpha virt. eigenvalues --    0.97741   0.98224   0.99419   0.99605   1.00337
 Alpha virt. eigenvalues --    1.02009   1.02822   1.03426   1.03584   1.04941
 Alpha virt. eigenvalues --    1.07130   1.08042   1.08663   1.10411   1.10646
 Alpha virt. eigenvalues --    1.11177   1.13229   1.14403   1.15504   1.16749
 Alpha virt. eigenvalues --    1.17246   1.17883   1.18518   1.19206   1.20302
 Alpha virt. eigenvalues --    1.21116   1.21987   1.22227   1.22950   1.24000
 Alpha virt. eigenvalues --    1.24435   1.24502   1.24859   1.26296   1.26365
 Alpha virt. eigenvalues --    1.26608   1.28278   1.29760   1.30180   1.30844
 Alpha virt. eigenvalues --    1.31788   1.32161   1.32292   1.33899   1.34470
 Alpha virt. eigenvalues --    1.35199   1.35569   1.36440   1.36545   1.37563
 Alpha virt. eigenvalues --    1.38166   1.38671   1.38854   1.40276   1.41288
 Alpha virt. eigenvalues --    1.41834   1.42727   1.44088   1.44402   1.46511
 Alpha virt. eigenvalues --    1.46990   1.48887   1.51263   1.52289   1.55362
 Alpha virt. eigenvalues --    1.57891   1.58188   1.61508   1.62244   1.64848
 Alpha virt. eigenvalues --    1.66436   1.66937   1.69398   1.71047   1.71095
 Alpha virt. eigenvalues --    1.72606   1.73379   1.73981   1.75286   1.77088
 Alpha virt. eigenvalues --    1.78653   1.79573   1.80149   1.80936   1.81513
 Alpha virt. eigenvalues --    1.82223   1.83337   1.85020   1.85363   1.85705
 Alpha virt. eigenvalues --    1.86735   1.87712   1.90052   1.90783   1.93396
 Alpha virt. eigenvalues --    1.94902   1.95602   1.95693   1.96860   1.97107
 Alpha virt. eigenvalues --    1.98200   1.98244   1.98485   2.00343   2.00652
 Alpha virt. eigenvalues --    2.02337   2.02698   2.04832   2.05288   2.06115
 Alpha virt. eigenvalues --    2.08033   2.08480   2.09260   2.09875   2.10789
 Alpha virt. eigenvalues --    2.11898   2.12995   2.13715   2.16699   2.19684
 Alpha virt. eigenvalues --    2.20431   2.22029   2.22462   2.22802   2.24288
 Alpha virt. eigenvalues --    2.25312   2.26370   2.28495   2.28709   2.30273
 Alpha virt. eigenvalues --    2.30573   2.31301   2.31828   2.33281   2.33370
 Alpha virt. eigenvalues --    2.35233   2.37735   2.39978   2.40021   2.40389
 Alpha virt. eigenvalues --    2.40759   2.41993   2.42335   2.44220   2.44475
 Alpha virt. eigenvalues --    2.46076   2.49132   2.49514   2.50720   2.51391
 Alpha virt. eigenvalues --    2.52581   2.53353   2.54513   2.55972   2.56118
 Alpha virt. eigenvalues --    2.56835   2.57639   2.59111   2.59944   2.60062
 Alpha virt. eigenvalues --    2.61084   2.63454   2.63641   2.64019   2.64610
 Alpha virt. eigenvalues --    2.66174   2.66721   2.68668   2.68955   2.69873
 Alpha virt. eigenvalues --    2.72106   2.73112   2.74651   2.75307   2.77516
 Alpha virt. eigenvalues --    2.79230   2.79386   2.79908   2.80876   2.81128
 Alpha virt. eigenvalues --    2.82365   2.83332   2.85299   2.85902   2.88193
 Alpha virt. eigenvalues --    2.89495   2.93103   2.95298   2.97495   2.98884
 Alpha virt. eigenvalues --    3.00745   3.03917   3.05698   3.09348   3.10053
 Alpha virt. eigenvalues --    3.13398   3.16647   3.18952   3.19608   3.22258
 Alpha virt. eigenvalues --    3.25463   3.26495   3.29993   3.32195   3.33718
 Alpha virt. eigenvalues --    3.36236   3.37265   3.37858   3.40342   3.43673
 Alpha virt. eigenvalues --    3.44444   3.45945   3.49333   3.54054   3.55877
 Alpha virt. eigenvalues --    3.57495   3.59523   3.75514   3.80375   3.82941
 Alpha virt. eigenvalues --    4.25521   4.32738   4.33796   4.35129   4.37191
 Alpha virt. eigenvalues --    4.37784   4.40810   4.43272   4.45044   4.48293
 Alpha virt. eigenvalues --    4.49024   4.50770   4.54850   4.57740   4.58338
 Alpha virt. eigenvalues --    4.59600   4.66843   4.73779   4.76551   4.89033
 Alpha virt. eigenvalues --    4.89996   4.95032   4.98548
          Condensed to atoms (all electrons):
               1          2          3          4          5          6
     1  N    7.119205   0.019096   0.072925   0.167247  -0.000743  -0.031826
     2  C    0.019096   7.886948   0.620862  -0.710560   0.024074   0.610804
     3  C    0.072925   0.620862  10.337786  -0.977612   0.108051  -0.763826
     4  C    0.167247  -0.710560  -0.977612  13.287980   0.158574  -1.778514
     5  H   -0.000743   0.024074   0.108051   0.158574   0.489682   0.029261
     6  C   -0.031826   0.610804  -0.763826  -1.778514   0.029261  10.354733
     7  H    0.000363  -0.007179   0.007678   0.037591  -0.002706   0.303424
     8  C   -0.013044   1.572212  -0.095906  -0.917500   0.061441   0.984589
     9  C    0.056751  -1.834756  -0.944202   0.123120   0.015307  -1.277444
    10  C   -0.226379  -0.493107  -0.873864  -0.944367   0.034026  -1.786270
    11  C   -0.011493   0.248895   0.166572  -0.018472  -0.000085  -0.027860
    12  C   -0.024582   0.296411  -0.015874  -0.029017  -0.000009   0.057554
    13  C   -0.026917   0.406951   0.091507  -0.209926   0.000046   0.124705
    14  N   -0.009334  -0.059363   0.016841   0.007924   0.000025   0.013006
    15  H   -0.000000  -0.000001  -0.000001  -0.000000  -0.000000   0.000003
    16  C    0.019038  -2.351803  -0.502386  -0.588198   0.002938  -0.712744
    17  C   -0.005686   0.163567   0.030857   0.005457  -0.000006  -0.045878
    18  C   -0.018596   0.302782  -0.136752  -0.843180   0.007179   0.814072
    19  C   -0.003471  -0.028358  -0.009088  -0.000970   0.000000   0.001209
    20  C    0.011583  -0.038761   0.104085  -0.070577  -0.000070   0.004495
    21  H    0.293888  -0.004697   0.024348   0.006712   0.000002   0.001341
    22  H    0.304468  -0.003055  -0.026148  -0.006403  -0.000002  -0.003846
    23  C   -0.004153   0.064153   0.015369   0.005966  -0.000000  -0.017163
    24  C    0.000270  -0.085012  -0.014384   0.041804   0.000038  -0.117022
    25  C    0.001280  -0.025048  -0.006627  -0.009629   0.000001   0.023176
    26  H    0.000000  -0.000064  -0.000002  -0.000001   0.000000   0.000052
    27  H    0.000000  -0.000065  -0.000002  -0.000001   0.000000   0.000053
    28  H    0.000003  -0.001142  -0.000219   0.000173   0.000000   0.000253
    29  H    0.000003  -0.001140  -0.000207   0.000171   0.000000   0.000264
    30  H    0.000149  -0.002097   0.002064  -0.007616   0.000001   0.000550
    31  H    0.000146  -0.004152   0.004840   0.001270   0.000001   0.002418
    32  H   -0.000739   0.000852  -0.000070   0.000003   0.000000   0.000039
    33  H    0.000004  -0.000038   0.000002   0.000000  -0.000000  -0.000001
    34  C   -0.016296  -0.829761  -0.595929   0.071548  -0.116780  -0.577037
    35  O   -0.018263  -0.135647  -0.121009   0.045647  -0.000223   0.050088
    36  O   -0.000956  -0.001395   0.016970  -0.039241  -0.004841   0.157783
    37  H    0.000202   0.017927  -0.005273  -0.014440   0.000260  -0.014688
               7          8          9         10         11         12
     1  N    0.000363  -0.013044   0.056751  -0.226379  -0.011493  -0.024582
     2  C   -0.007179   1.572212  -1.834756  -0.493107   0.248895   0.296411
     3  C    0.007678  -0.095906  -0.944202  -0.873864   0.166572  -0.015874
     4  C    0.037591  -0.917500   0.123120  -0.944367  -0.018472  -0.029017
     5  H   -0.002706   0.061441   0.015307   0.034026  -0.000085  -0.000009
     6  C    0.303424   0.984589  -1.277444  -1.786270  -0.027860   0.057554
     7  H    0.492086  -0.041895   0.009183   0.035279  -0.000032   0.000004
     8  C   -0.041895  10.564194  -3.025636  -1.226783   0.390883   0.222393
     9  C    0.009183  -3.025636  11.861053   1.854455  -0.950650  -0.407158
    10  C    0.035279  -1.226783   1.854455  10.262815  -0.193644   0.072033
    11  C   -0.000032   0.390883  -0.950650  -0.193644   7.298676  -1.405208
    12  C    0.000004   0.222393  -0.407158   0.072033  -1.405208  10.503829
    13  C   -0.000261   0.080537  -0.952196  -0.225492   0.932353  -1.230318
    14  N   -0.000072  -0.116043   0.061178  -0.239086  -0.033609  -0.440584
    15  H   -0.000000   0.000049   0.000079  -0.000160   0.057411  -0.004689
[...]
    26  H   -0.000000   0.000070  -0.001658  -0.000168   0.012372   0.005678
    27  H   -0.000000   0.000073  -0.001661  -0.000167   0.012430   0.005671
    28  H    0.000000  -0.014601   0.020128  -0.003411  -0.010415  -0.003565
    29  H    0.000000  -0.014662   0.020205  -0.003411  -0.010544  -0.003560
    30  H    0.000504  -0.031020   0.392250   0.013828  -0.009573  -0.001271
    31  H    0.000504  -0.030840   0.392308   0.013885  -0.009580  -0.001280
    32  H   -0.000000  -0.000485   0.000218  -0.005417   0.075248   0.230774
    33  H    0.000000  -0.000041   0.000093   0.000122  -0.008708  -0.006456
    34  C    0.005636  -0.421984  -0.190698  -0.755224   0.014709  -0.001315
    35  O    0.000022   0.006804   0.003458   0.063779  -0.000449  -0.000015
    36  O    0.000065   0.037590   0.000299  -0.007730   0.000076  -0.000031
    37  H   -0.000000  -0.001844   0.000007   0.000164   0.000001  -0.000002
              13         14         15         16         17         18
     1  N   -0.027653  -0.005399  -0.000000   0.024799  -0.007405  -0.015105
     2  C    0.385961  -0.032520  -0.000004  -3.018629   0.239177  -0.043780
     3  C    0.072570   0.057685  -0.000000  -0.915286   0.037166  -0.233473
     4  C   -0.221071   0.022983  -0.000000  -0.679546   0.003779  -1.026958
     5  H    0.000071   0.000022  -0.000000   0.003977  -0.000005   0.007219
     6  C    0.130910   0.005724   0.000003  -0.580406  -0.063318   0.905454
     7  H   -0.000321  -0.000065  -0.000000   0.000488   0.000058  -0.028587
     8  C    0.031891  -0.085919   0.000075  -1.385331   0.174070  -0.581390
     9  C   -0.881922   0.045036   0.000069   1.583067  -0.405771   0.885267
    10  C   -0.249288  -0.288576  -0.000157   2.683662   0.114116  -0.990574
    11  C    1.048018  -0.042010   0.054763  -1.220187   0.970467  -0.354958
    12  C   -1.136942  -0.451404  -0.006995   0.173312   0.911428  -0.963496
    13  C    8.503764   0.062156  -0.011816  -0.286761  -0.401039  -0.269903
    14  N    0.062156   7.587420   0.000385   0.026143  -0.037240  -0.018341
    15  H   -0.011816   0.000385   0.499517  -0.000339   0.039029   0.001948
    16  C   -0.286761   0.026143  -0.000339  10.117686  -0.150786  -0.030842
    17  C   -0.401039  -0.037240   0.039029  -0.150786   8.016859  -0.559139
    18  C   -0.269903  -0.018341   0.001948  -0.030842  -0.559139   8.373842
    19  C   -0.753862   0.135947   0.008125   0.027152  -0.295361   0.198856
    20  C   -0.358961   0.201256   0.005956  -0.202925  -0.907113   1.168253
    21  H    0.002298   0.044380   0.000000  -0.006551  -0.001972   0.008881
    22  H    0.002642   0.005085  -0.000000   0.008442  -0.000061  -0.001394
    23  C    1.090195  -0.101319   0.244476   0.160491  -0.831706  -0.464119
    24  C   -0.678487   0.077536  -0.000193  -0.466724   0.281571   0.004205
    25  C   -0.080314   0.013194  -0.014051  -0.001944  -0.860077   0.071514
    26  H    0.000256   0.000239   0.000468   0.000113  -0.092294  -0.004098
    27  H    0.000255   0.000239   0.000468   0.000109  -0.092146  -0.004129
    28  H   -0.008950   0.000245  -0.000001  -0.003766   0.019949   0.017585
    29  H   -0.008947   0.000245  -0.000001  -0.003725   0.019782   0.017757
    30  H   -0.001066   0.000040   0.000000   0.013491  -0.000663  -0.061054
    31  H   -0.001130   0.000044   0.000000   0.013377  -0.000628  -0.061319
    32  H    0.061951  -0.011847  -0.000120  -0.024314  -0.022345   0.011262
    33  H    0.045598  -0.000042  -0.003384   0.000512   0.019926   0.000389
    34  C    0.021980   0.005113   0.000000  -0.006656   0.001101  -0.096205
    35  O    0.001832  -0.000855  -0.000000   0.025204  -0.000022   0.001196
    36  O   -0.000260  -0.000099  -0.000000   0.001584  -0.000001  -0.000139
    37  H   -0.000006  -0.000000   0.000000   0.000682   0.000000  -0.000193
              19         20         21         22         23         24
     1  N   -0.002032   0.017914   0.289336   0.298230  -0.005946   0.001756
     2  C   -0.060832  -0.174070   0.006824   0.015482   0.122643  -0.110723
     3  C   -0.014635   0.059565   0.044643  -0.059881   0.019813  -0.019150
     4  C   -0.001559  -0.128117   0.012232  -0.020003   0.005731   0.035380
     5  H    0.000000  -0.000007   0.000002  -0.000001  -0.000000   0.000036
     6  C    0.002795  -0.011590  -0.000436  -0.003663  -0.022375  -0.103350
     7  H   -0.000000  -0.000336  -0.000000  -0.000000   0.000003  -0.000076
     8  C   -0.021184   0.365071  -0.007079  -0.005314   0.031511  -0.517210
     9  C    0.062535  -0.872332   0.000789   0.002247  -0.155882   0.899777
    10  C   -0.043994  -0.485749  -0.072796   0.059596   0.123740   0.078523
    11  C    0.222418   1.007408   0.003118   0.000095  -1.174185   0.050273
    12  C   -0.008600  -1.222921  -0.013700  -0.000641  -0.217546  -0.423923
    13  C   -0.753862  -0.358961   0.002298   0.002642   1.090195  -0.678487
    14  N    0.135947   0.201256   0.044380   0.005085  -0.101319   0.077536
    15  H    0.008125   0.005956   0.000000  -0.000000   0.244476  -0.000193
    16  C    0.027152  -0.202925  -0.006551   0.008442   0.160491  -0.466724
    17  C   -0.295361  -0.907113  -0.001972  -0.000061  -0.831706   0.281571
    18  C    0.198856   1.168253   0.008881  -0.001394  -0.464119   0.004205
    19  C    5.772480   0.312224   0.004091   0.000034   0.281027   0.033329
    20  C    0.312224   9.303818   0.008114  -0.000040  -1.763280  -1.441168
    21  H    0.004091   0.008114   0.320671  -0.016380  -0.000712   0.000966
    22  H    0.000034  -0.000040  -0.016380   0.318258  -0.000014   0.000012
    23  C    0.281027  -1.763280  -0.000712  -0.000014   9.616470   0.197705
    24  C    0.033329  -1.441168   0.000966   0.000012   0.197705   8.407491
    25  C   -0.101918   0.175078  -0.000286   0.000007  -0.505548  -0.735255
    26  H   -0.004512   0.035471   0.000000  -0.000000  -0.020244  -0.075030
    27  H   -0.004526   0.035366   0.000000  -0.000000  -0.020197  -0.074876
    28  H    0.000816  -0.099912  -0.000000   0.000000  -0.001497   0.460997
    29  H    0.000820  -0.099859  -0.000000   0.000000  -0.001511   0.460725
    30  H    0.000016  -0.001316   0.000000  -0.000000  -0.000355   0.008318
    31  H    0.000016  -0.001363   0.000000  -0.000000  -0.000351   0.008462
    32  H    0.009555   0.013483   0.000157   0.000001  -0.012569  -0.000447
    33  H    0.261926   0.001192  -0.000000   0.000000   0.010890   0.001656
    34  C    0.000153  -0.002168  -0.001810  -0.001429   0.000061  -0.003379
    35  O    0.000012  -0.000395   0.002056   0.018136  -0.000020  -0.000028
    36  O    0.000000   0.000200   0.000092   0.000470   0.000001   0.000011
    37  H   -0.000000   0.000002  -0.000000   0.000017   0.000000   0.000000
              25         26         27         28         29         30
     1  N    0.001407   0.000000   0.000000   0.000003   0.000003   0.000142
     2  C   -0.044813  -0.000079  -0.000078  -0.001235  -0.001252  -0.001024
     3  C   -0.007277  -0.000002  -0.000002  -0.000192  -0.000193   0.003795
     4  C   -0.007892  -0.000001  -0.000001   0.000178   0.000178  -0.003810
     5  H    0.000001   0.000000   0.000000   0.000000   0.000000   0.000001
     6  C    0.029916   0.000054   0.000054   0.000389   0.000389  -0.001834
     7  H   -0.000019  -0.000000  -0.000000   0.000000   0.000000   0.000504
     8  C    0.020494   0.000070   0.000073  -0.014601  -0.014662  -0.031020
     9  C   -0.076405  -0.001658  -0.001661   0.020128   0.020205   0.392250
    10  C   -0.042525  -0.000168  -0.000167  -0.003411  -0.003411   0.013828
    11  C   -0.582694   0.012372   0.012430  -0.010415  -0.010544  -0.009573
    12  C    0.583877   0.005678   0.005671  -0.003565  -0.003560  -0.001271
    13  C   -0.080314   0.000256   0.000255  -0.008950  -0.008947  -0.001066
    14  N    0.013194   0.000239   0.000239   0.000245   0.000245   0.000040
    15  H   -0.014051   0.000468   0.000468  -0.000001  -0.000001   0.000000
    16  C   -0.001944   0.000113   0.000109  -0.003766  -0.003725   0.013491
    17  C   -0.860077  -0.092294  -0.092146   0.019949   0.019782  -0.000663
    18  C    0.071514  -0.004098  -0.004129   0.017585   0.017757  -0.061054
    19  C   -0.101918  -0.004512  -0.004526   0.000816   0.000820   0.000016
    20  C    0.175078   0.035471   0.035366  -0.099912  -0.099859  -0.001316
    21  H   -0.000286   0.000000   0.000000  -0.000000  -0.000000   0.000000
    22  H    0.000007  -0.000000  -0.000000   0.000000   0.000000  -0.000000
    23  C   -0.505548  -0.020244  -0.020197  -0.001497  -0.001511  -0.000355
    24  C   -0.735255  -0.075030  -0.074876   0.460997   0.460725   0.008318
    25  C    7.818422   0.470432   0.470186  -0.045365  -0.045061  -0.003234
    26  H    0.470432   0.499091  -0.025382  -0.005331   0.002210  -0.000001
    27  H    0.470186  -0.025382   0.499091   0.002210  -0.005331   0.000000
    28  H   -0.045365  -0.005331   0.002210   0.491373  -0.023490   0.000421
    29  H   -0.045061   0.002210  -0.005331  -0.023490   0.491374  -0.000225
    30  H   -0.003234  -0.000001   0.000000   0.000421  -0.000225   0.484809
    31  H   -0.003267   0.000000  -0.000001  -0.000225   0.000421  -0.023151
    32  H   -0.001466  -0.000000  -0.000000  -0.000000  -0.000000   0.000000
    33  H   -0.001459   0.000001   0.000001  -0.000000  -0.000000  -0.000000
    34  C    0.000001   0.000000   0.000000  -0.000004  -0.000004   0.000105
    35  O    0.000010   0.000000   0.000000  -0.000000  -0.000000  -0.000001
    36  O   -0.000001   0.000000   0.000000   0.000000   0.000000  -0.000000
    37  H   -0.000000   0.000000   0.000000   0.000000   0.000000  -0.000000
              31         32         33         34         35         36
     1  N    0.000140  -0.000791   0.000005  -0.030347  -0.012956  -0.001852
     2  C   -0.000958   0.000724  -0.000030  -0.663250  -0.137644   0.003530
     3  C    0.003813  -0.000036   0.000002  -0.115675  -0.168112   0.091924
     4  C   -0.003642   0.000005   0.000000   0.161446   0.047547  -0.086286
     5  H    0.000001   0.000000  -0.000000  -0.088061   0.000110  -0.001197
     6  C   -0.002037   0.000036  -0.000001  -0.500681   0.045856   0.151491
     7  H    0.000504  -0.000000   0.000000   0.005636   0.000022   0.000065
     8  C   -0.030840  -0.000485  -0.000041  -0.421984   0.006804   0.037590
     9  C    0.392308   0.000218   0.000093  -0.190698   0.003458   0.000299
    10  C    0.013885  -0.005417   0.000122  -0.755224   0.063779  -0.007730
    11  C   -0.009580   0.075248  -0.008708   0.014709  -0.000449   0.000076
    12  C   -0.001280   0.230774  -0.006456  -0.001315  -0.000015  -0.000031
    13  C   -0.001130   0.061951   0.045598   0.021980   0.001832  -0.000260
    14  N    0.000044  -0.011847  -0.000042   0.005113  -0.000855  -0.000099
    15  H    0.000000  -0.000120  -0.003384   0.000000  -0.000000  -0.000000
    16  C    0.013377  -0.024314   0.000512  -0.006656   0.025204   0.001584
    17  C   -0.000628  -0.022345   0.019926   0.001101  -0.000022  -0.000001
    18  C   -0.061319   0.011262   0.000389  -0.096205   0.001196  -0.000139
    19  C    0.000016   0.009555   0.261926   0.000153   0.000012   0.000000
    20  C   -0.001363   0.013483   0.001192  -0.002168  -0.000395   0.000200
    21  H    0.000000   0.000157  -0.000000  -0.001810   0.002056   0.000092
    22  H   -0.000000   0.000001   0.000000  -0.001429   0.018136   0.000470
    23  C   -0.000351  -0.012569   0.010890   0.000061  -0.000020   0.000001
    24  C    0.008462  -0.000447   0.001656  -0.003379  -0.000028   0.000011
    25  C   -0.003267  -0.001466  -0.001459   0.000001   0.000010  -0.000001
    26  H    0.000000  -0.000000   0.000001   0.000000   0.000000   0.000000
    27  H   -0.000001  -0.000000   0.000001   0.000000   0.000000   0.000000
    28  H   -0.000225  -0.000000  -0.000000  -0.000004  -0.000000   0.000000
    29  H    0.000421  -0.000000  -0.000000  -0.000004  -0.000000   0.000000
    30  H   -0.023151   0.000000  -0.000000   0.000105  -0.000001  -0.000000
    31  H    0.484816   0.000000  -0.000000   0.000105  -0.000001  -0.000000
    32  H    0.000000   0.503649  -0.003959   0.000001  -0.000000  -0.000000
    33  H   -0.000000  -0.003959   0.501660  -0.000000   0.000000  -0.000000
    34  C    0.000105   0.000001  -0.000000   7.135107   0.342224  -0.145475
    35  O   -0.000001  -0.000000   0.000000   0.342224   8.456577  -0.142395
    36  O   -0.000000  -0.000000  -0.000000  -0.145475  -0.142395   8.379310
    37  H   -0.000000   0.000000   0.000000   0.029208   0.005135   0.204247
              37
     1  N    0.000010
     2  C    0.022425
     3  C    0.009854
     4  C   -0.014401
     5  H    0.000126
     6  C   -0.014671
     7  H   -0.000000
     8  C   -0.001844
     9  C    0.000007
    10  C    0.000164
    11  C    0.000001
    12  C   -0.000002
    13  C   -0.000006
    14  N   -0.000000
    15  H    0.000000
    16  C    0.000682
    17  C    0.000000
    18  C   -0.000193
    19  C   -0.000000
    20  C    0.000002
    21  H   -0.000000
    22  H    0.000017
    23  C    0.000000
    24  C    0.000000
    25  C   -0.000000
    26  H    0.000000
    27  H    0.000000
    28  H    0.000000
    29  H    0.000000
    30  H   -0.000000
    31  H   -0.000000
    32  H    0.000000
    33  H    0.000000
    34  C    0.029208
    35  O    0.005135
    36  O    0.204247
    37  H    0.341975
 Mulliken charges:
               1
     1  N   -0.632784
     2  C    0.490117
     3  C   -0.528760
     4  C   -0.929691
     5  H    0.191975
     6  C   -0.429932
     7  H    0.183962
     8  C    0.058247
     9  C   -0.942355
    10  C    0.275726
    11  C    0.201064
    12  C   -0.596941
    13  C   -0.083656
    14  N   -0.215481
    15  H    0.181779
    16  C    0.120425
    17  C   -0.119387
    18  C    0.135568
    19  C   -0.021311
    20  C    1.063249
    21  H    0.373068
    22  H    0.380071
    23  C   -0.605379
    24  C   -0.358713
    25  C   -0.493665
    26  H    0.202342
    27  H    0.202342
    28  H    0.207667
    29  H    0.207668
    30  H    0.221877
    31  H    0.221881
    32  H    0.176731
    33  H    0.180105
    34  C    1.307417
    35  O   -0.557067
    36  O   -0.485425
    37  H    0.417264
 Sum of Mulliken charges =  -0.00000
 Mulliken charges with hydrogens summed into heavy atoms:
               1
     1  N    0.120355
     2  C    0.490117
     3  C   -0.528760
     4  C   -0.737717
     6  C   -0.245970
     8  C    0.058247
     9  C   -0.498598
    10  C    0.275726
    11  C    0.201064
    12  C   -0.420210
    13  C   -0.083656
    14  N   -0.215481
    16  C    0.120425
    17  C   -0.119387
    18  C    0.135568
    19  C    0.158794
    20  C    1.063249
    23  C   -0.423600
    24  C    0.056622
    25  C   -0.088981
    34  C    1.307417
    35  O   -0.557067
    36  O   -0.068160
 Electronic spatial extent (au):  <R**2>=           8373.8282
 Charge=              0.0000 electrons
 Dipole moment (field-independent basis, Debye):
    X=             -3.8211    Y=              5.0921    Z=              0.0054  Tot=              6.3663
 Quadrupole moment (field-independent basis, Debye-Ang):
   XX=           -108.4928   YY=           -118.8141   ZZ=           -136.7028
   XY=             -0.5548   XZ=              0.0084   YZ=             -0.0076
 Traceless Quadrupole moment (field-independent basis, Debye-Ang):
   XX=             12.8437   YY=              2.5225   ZZ=            -15.3662
   XY=             -0.5548   XZ=              0.0084   YZ=             -0.0076
 Octapole moment (field-independent basis, Debye-Ang**2):
  XXX=             30.4282  YYY=             18.8443  ZZZ=              0.0125  XYY=            -28.9484
  XXY=             24.0722  XXZ=              0.0516  XZZ=             13.2311  YZZ=              6.0339
  YYZ=              0.0231  XYZ=             -0.0035
 Hexadecapole moment (field-independent basis, Debye-Ang**3):
 XXXX=          -7339.5322 YYYY=          -1964.0308 ZZZZ=           -171.8468 XXXY=           -112.2865
 XXXZ=              0.1541 YYYX=             62.5028 YYYZ=             -0.0454 ZZZX=              0.0330
 ZZZY=             -0.0152 XXYY=          -1808.9854 XXZZ=          -1587.4069 YYZZ=           -402.9438
 XXYZ=              0.0291 YYXZ=              0.0204 ZZXY=            -62.0524
 N-N= 1.776181753652D+03 E-N=-5.857993401030D+03  KE= 9.829747702274D+02
 Leave Link  601 at Tue Feb 11 12:03:38 2025, MaxMem=  8375500800 cpu:               4.1 elap:               0.2
 (Enter /gpfslocalsup/prod/g16/rev-C01/g16/l9999.exe)
 Electronic transition elements 
                 1             2             3 
      1  -0.991300D+03 -0.991282D+03 -0.991280D+03
      2   0.241158D+01  0.199653D+00 -0.243438D+00
      3   0.230663D+00  0.431793D+00  0.667256D+00
      4   0.248463D-02  0.636987D-03 -0.553998D-03
      5  -0.301194D+00 -0.214719D-01  0.266848D-01
      6  -0.313560D-01 -0.658877D-01 -0.995501D-01
      7  -0.310594D-03 -0.734798D-04  0.647096D-04
      8   0.102890D-02  0.277652D-03 -0.468091D-03
      9  -0.205953D-03  0.112063D-03 -0.102916D-03
     10  -0.104614D+01 -0.262354D+00  0.485018D+00
     11  -0.599085D+00  0.107281D+01 -0.844971D+00
     12   0.266011D-01  0.302869D-01  0.155053D+00
     13   0.158172D-01  0.962004D-02  0.685705D-02
     14  -0.328105D+00  0.209402D+00  0.603902D+00
     15  -0.513707D-03  0.975782D-03 -0.681979D-03
     16  -0.319920D-03 -0.156168D-05  0.914683D-03
 Unable to Open any file for archive entry.
 1\1\GINC-R2I1N18\SP\RPBE1PBE TD-FC\6-31+G(d,p)\C19H14N2O2\UZX44EF\11-F
 eb-2025\0\\#P PBE1PBE/6-31+G(d,p) Geom=AllCheck Guess=Read SCRF(PCM,So
 lvent=Acetonitrile) TD(NStates=3, Root=1)\\Title\\0,1\N,0,-1.811836312
 6,1.6360956466,0.0053686215\C,0,-1.370416258,0.3651914671,0.0049486306
 \C,0,0.0077360297,-0.0040366213,0.0059832636\C,0,0.369568543,-1.366700
 2094,0.0061630058\H,0,1.4269265286,-1.6094798079,0.0069727623\C,0,-0.5
 658200456,-2.3898345584,0.0052483422\H,0,-0.2520850139,-3.4288030799,0
 .0053996081\C,0,-1.9168457991,-2.0358008939,0.0040628436\C,0,-3.127436
 1577,-2.9347153595,0.0026616238\C,0,-2.3086348766,-0.6972841115,0.0038
 853712\C,0,-6.3969596326,-0.932838334,-0.000875732\C,0,-6.7327525817,1
 .4420875688,-0.0010545856\C,0,-5.8266854058,0.3551183874,-0.0000623139
 \N,0,-4.4668853867,0.505208451,0.0015961229\H,0,-9.7214037699,-0.24505
 88905,-0.0048395303\C,0,-3.7630732133,-0.6172141977,0.0022957247\C,0,-
 7.7786086527,-1.1873914937,-0.0025764383\C,0,-4.2725314543,-1.96283072
 52,0.0015263906\C,0,-8.0966245142,1.1967441803,-0.0027297084\C,0,-5.63
 08650012,-2.120200856,-0.0000978626\H,0,-2.8142805734,1.7908119088,0.0
 030341033\H,0,-1.1392121834,2.3892549784,0.004222977\C,0,-8.6429118487
 ,-0.1123014609,-0.0035188256\C,0,-6.5649656855,-3.3027405044,-0.001350
 2239\C,0,-7.9958284909,-2.684269562,-0.0030111074\H,0,-8.5673521618,-3
 .0011226595,-0.8819653977\H,0,-8.5694819219,-3.0013302181,0.8744792239
 \H,0,-6.3934631229,-3.9357460602,-0.8789029055\H,0,-6.3955803201,-3.93
 59220479,0.8764868106\H,0,-3.1381441928,-3.5917866007,-0.8765447778\H,
 0,-3.1400258694,-3.5919543469,0.8817193302\H,0,-6.3505265653,2.4590884
 655,-0.000497532\H,0,-8.7793373798,2.0425765282,-0.0034742446\C,0,1.03
 79946666,1.0308810048,0.0066483113\O,0,0.8273490775,2.2413685968,0.005
 8143796\O,0,2.2971841866,0.5567347728,0.0083242906\H,0,2.8901455398,1.
 3232694629,0.0085163882\\Version=ES64L-G16RevC.01\State=1-A\HF=-991.42
 81448\RMSD=9.006e-09\PG=C01 [X(C19H14N2O2)]\\@
 The archive entry for this job was punched.


 DEMOCRATS BUY MOST OF THE BOOKS THAT HAVE BEEN
 BANNED; REPUBLICANS FORM CENSORSHIP COMMITTEES AND
 READ THEM AS A GROUP.
 Job cpu time:       0 days  1 hours 45 minutes  8.1 seconds.
 Elapsed time:       0 days  0 hours  2 minutes 41.5 seconds.
 File lengths (MBytes):  RWF=   1407 Int=      0 D2E=      0 Chk=     59 Scr=      1
 Normal termination of Gaussian 16 at Tue Feb 11 12:03:38 2025.
