 Set GAUSS_CDEF to "0-39".
 Set GAUSS_MDEF to "140GB".
 Entering Gaussian System, Link 0=g16
 Initial command:
 /gpfslocalsup/prod/g16/rev-C01/g16/l1.exe "/lustre/fsn1/jobscratch/uzx44ef_478103/Gau-3041917.inp" -scrdir="/lustre/fsn1/jobscratch/uzx44ef_478103/"
 Default CPUs for threads: 0-39
 Default is to use a total of  40 processors:
                               40 via shared-memory
                                1 via Linda
 Entering Link 1 = /gpfslocalsup/prod/g16/rev-C01/g16/l1.exe PID=   3041918.
  
 Copyright (c) 1988-2019, Gaussian, Inc.  All Rights Reserved.
  
 This is part of the Gaussian(R) 16 program.  It is based on
 the Gaussian(R) 09 system (copyright 2009, Gaussian, Inc.),
 the Gaussian(R) 03 system (copyright 2003, Gaussian, Inc.),
 the Gaussian(R) 98 system (copyright 1998, Gaussian, Inc.),
 the Gaussian(R) 94 system (copyright 1995, Gaussian, Inc.),
 the Gaussian 92(TM) system (copyright 1992, Gaussian, Inc.),
 the Gaussian 90(TM) system (copyright 1990, Gaussian, Inc.),
 the Gaussian 88(TM) system (copyright 1988, Gaussian, Inc.),
 the Gaussian 86(TM) system (copyright 1986, Carnegie Mellon
 University), and the Gaussian 82(TM) system (copyright 1983,
 Carnegie Mellon University). Gaussian is a federally registered
 trademark of Gaussian, Inc.
  
 This software contains proprietary and confidential information,
 including trade secrets, belonging to Gaussian, Inc.
  
 This software is provided under written license and may be
 used, copied, transmitted, or stored only in accord with that
 written license.
  
 The following legend is applicable only to US Government
 contracts under FAR:
  
                    RESTRICTED RIGHTS LEGEND
  
 Use, reproduction and disclosure by the US Government is
 subject to restrictions as set forth in subparagraphs (a)
 and (c) of the Commercial Computer Software - Restricted
 Rights clause in FAR 52.227-19.
  
 Gaussian, Inc.
 340 Quinnipiac St., Bldg. 40, Wallingford CT 06492
  
  
 ---------------------------------------------------------------
 Warning -- This program may not be used in any manner that
 competes with the business of Gaussian, Inc. or will provide
 assistance to any competitor of Gaussian, Inc.  The licensee
 of this program is prohibited from giving any competitor of
 Gaussian, Inc. access to this program.  By using this program,
 the user acknowledges that Gaussian, Inc. is engaged in the
 business of creating and licensing software in the field of
 computational chemistry and represents and warrants to the
 licensee that it is not a competitor of Gaussian, Inc. and that
 it will not use this program in any manner prohibited above.
 ---------------------------------------------------------------
  

 Cite this work as:
 Gaussian 16, Revision C.01,
 M. J. Frisch, G. W. Trucks, H. B. Schlegel, G. E. Scuseria, 
 M. A. Robb, J. R. Cheeseman, G. Scalmani, V. Barone, 
 G. A. Petersson, H. Nakatsuji, X. Li, M. Caricato, A. V. Marenich, 
 J. Bloino, B. G. Janesko, R. Gomperts, B. Mennucci, H. P. Hratchian, 
 J. V. Ortiz, A. F. Izmaylov, J. L. Sonnenberg, D. Williams-Young, 
 F. Ding, F. Lipparini, F. Egidi, J. Goings, B. Peng, A. Petrone, 
 T. Henderson, D. Ranasinghe, V. G. Zakrzewski, J. Gao, N. Rega, 
 G. Zheng, W. Liang, M. Hada, M. Ehara, K. Toyota, R. Fukuda, 
 J. Hasegawa, M. Ishida, T. Nakajima, Y. Honda, O. Kitao, H. Nakai, 
 T. Vreven, K. Throssell, J. A. Montgomery, Jr., J. E. Peralta, 
 F. Ogliaro, M. J. Bearpark, J. J. Heyd, E. N. Brothers, K. N. Kudin, 
 V. N. Staroverov, T. A. Keith, R. Kobayashi, J. Normand, 
 K. Raghavachari, A. P. Rendell, J. C. Burant, S. S. Iyengar, 
 J. Tomasi, M. Cossi, J. M. Millam, M. Klene, C. Adamo, R. Cammi, 
 J. W. Ochterski, R. L. Martin, K. Morokuma, O. Farkas, 
 J. B. Foresman, and D. J. Fox, Gaussian, Inc., Wallingford CT, 2019.
 
 ******************************************
 Gaussian 16:  ES64L-G16RevC.01  3-Jul-2019
                11-Feb-2025 
 ******************************************
 %mem=63900MB
 %nprocshared=40
 Will use up to   40 processors via shared memory.
 %chk=Rigid_ESIPT_Keto_COOH_0.chk
 --------------------------------------------------------------
 #P PBE1PBE/6-31+G(d,p) Opt Freq SCRF(PCM,Solvent=Acetonitrile)
 --------------------------------------------------------------
 1/18=20,19=15,26=3,38=1/1,3;
 2/9=110,12=2,17=6,18=5,40=1/2;
 3/5=1,6=6,7=111,11=2,25=1,30=1,70=2201,71=1,72=2,74=-13/1,2,3;
 4//1;
 5/5=2,38=5,53=2/2;
 6/7=2,8=2,9=2,10=2,28=1/1;
 7//1,2,3,16;
 1/18=20,19=15,26=3/3(2);
 2/9=110/2;
 99//99;
 2/9=110/2;
 3/5=1,6=6,7=111,11=2,25=1,30=1,70=2205,71=1,72=2,74=-13/1,2,3;
 4/5=5,16=3,69=1/1;
 5/5=2,38=5,53=2/2;
 7//1,2,3,16;
 1/18=20,19=15,26=3/3(-5);
 2/9=110/2;
 6/7=2,8=2,9=2,10=2,19=2,28=1/1;
 99/9=1/99;
 Leave Link    1 at Tue Feb 11 11:42:16 2025, MaxMem=  8375500800 cpu:               6.6 elap:               0.2
 (Enter /gpfslocalsup/prod/g16/rev-C01/g16/l101.exe)
 -----
 Title
 -----
 Symbolic Z-matrix:
 Charge =  0 Multiplicity = 1
 N                     1.93787   1.56495   0.00001 
 C                     1.39808   0.35382   0.00001 
 C                     0.        0.        0. 
 C                    -0.40906  -1.31713  0. 
 H                    -1.47771  -1.52363  -0.00001 
 C                     0.48878  -2.42172   0.00001 
 H                     0.11104  -3.43951   0.00001 
 C                     1.83512  -2.13614   0.00002 
 C                     3.04308  -3.05332   0.00003 
 C                     2.26824  -0.78853   0.00002 
 C                     6.34198  -1.03338   0.00005 
 C                     6.6943    1.34527   0.00005 
 C                     5.80536   0.2618    0.00005 
 N                     4.42928   0.34885   0.00004 
 H                     9.67002  -0.36509   0.00008 
 C                     3.6726   -0.7636    0.00003 
 C                     7.71657  -1.29216   0.00006 
 C                     4.20638  -2.09251   0.00004 
 C                     8.06269   1.08578   0.00006 
 C                     5.56302  -2.22936   0.00005 
 H                     3.87847   1.22452   0.00003 
 H                     1.20963   2.2777    0.00001 
 C                     8.59361  -0.21997   0.00007 
 C                     6.50312  -3.40582   0.00006 
 C                     7.93264  -2.78773   0.00006 
 H                     8.50594  -3.10298   0.87833 
 H                     8.50593  -3.10297  -0.87821 
 H                     6.33265  -4.03887   0.87767 
 H                     6.33265  -4.03889  -0.87753 
 H                     3.05887  -3.70854   0.8797 
 H                     3.05888  -3.70854  -0.87964 
 H                     6.32416   2.36605   0.00005 
 H                     8.74793   1.92884   0.00007 
 C                    -0.95064   1.02413  -0.00001 
 O                    -0.7309    2.21923  -0.05806 
 O                    -2.19842   0.53681   0.07422 
 H                    -2.76963   1.33342   0.06686 
 
 ITRead=  0  0  0  0  0  0  0  0  0  0  0  0  0  0  0  0  0  0  0  0
 ITRead=  0  0  0  0  0  0  0  0  0  0  0  0  0  0  0  0  0
 MicOpt= -1 -1 -1 -1 -1 -1 -1 -1 -1 -1 -1 -1 -1 -1 -1 -1 -1 -1 -1 -1
 MicOpt= -1 -1 -1 -1 -1 -1 -1 -1 -1 -1 -1 -1 -1 -1 -1 -1 -1
 NAtoms=     37 NQM=       37 NQMF=       0 NMMI=      0 NMMIF=      0
                NMic=       0 NMicF=      0.
                    Isotopes and Nuclear Properties:
 (Nuclear quadrupole moments (NQMom) in fm**2, nuclear magnetic moments (NMagM)
  in nuclear magnetons)

  Atom         1           2           3           4           5           6           7           8           9          10
 IAtWgt=          14          12          12          12           1          12           1          12          12          12
 AtmWgt=  14.0030740  12.0000000  12.0000000  12.0000000   1.0078250  12.0000000   1.0078250  12.0000000  12.0000000  12.0000000
 NucSpn=           2           0           0           0           1           0           1           0           0           0
 AtZEff=  -0.0000000  -0.0000000  -0.0000000  -0.0000000  -0.0000000  -0.0000000  -0.0000000  -0.0000000  -0.0000000  -0.0000000
 NQMom=    2.0440000   0.0000000   0.0000000   0.0000000   0.0000000   0.0000000   0.0000000   0.0000000   0.0000000   0.0000000
 NMagM=    0.4037610   0.0000000   0.0000000   0.0000000   2.7928460   0.0000000   2.7928460   0.0000000   0.0000000   0.0000000
 AtZNuc=   7.0000000   6.0000000   6.0000000   6.0000000   1.0000000   6.0000000   1.0000000   6.0000000   6.0000000   6.0000000

  Atom        11          12          13          14          15          16          17          18          19          20
 IAtWgt=          12          12          12          14           1          12          12          12          12          12
 AtmWgt=  12.0000000  12.0000000  12.0000000  14.0030740   1.0078250  12.0000000  12.0000000  12.0000000  12.0000000  12.0000000
 NucSpn=           0           0           0           2           1           0           0           0           0           0
 AtZEff=  -0.0000000  -0.0000000  -0.0000000  -0.0000000  -0.0000000  -0.0000000  -0.0000000  -0.0000000  -0.0000000  -0.0000000
 NQMom=    0.0000000   0.0000000   0.0000000   2.0440000   0.0000000   0.0000000   0.0000000   0.0000000   0.0000000   0.0000000
 NMagM=    0.0000000   0.0000000   0.0000000   0.4037610   2.7928460   0.0000000   0.0000000   0.0000000   0.0000000   0.0000000
 AtZNuc=   6.0000000   6.0000000   6.0000000   7.0000000   1.0000000   6.0000000   6.0000000   6.0000000   6.0000000   6.0000000

  Atom        21          22          23          24          25          26          27          28          29          30
 IAtWgt=           1           1          12          12          12           1           1           1           1           1
 AtmWgt=   1.0078250   1.0078250  12.0000000  12.0000000  12.0000000   1.0078250   1.0078250   1.0078250   1.0078250   1.0078250
 NucSpn=           1           1           0           0           0           1           1           1           1           1
 AtZEff=  -0.0000000  -0.0000000  -0.0000000  -0.0000000  -0.0000000  -0.0000000  -0.0000000  -0.0000000  -0.0000000  -0.0000000
 NQMom=    0.0000000   0.0000000   0.0000000   0.0000000   0.0000000   0.0000000   0.0000000   0.0000000   0.0000000   0.0000000
 NMagM=    2.7928460   2.7928460   0.0000000   0.0000000   0.0000000   2.7928460   2.7928460   2.7928460   2.7928460   2.7928460
 AtZNuc=   1.0000000   1.0000000   6.0000000   6.0000000   6.0000000   1.0000000   1.0000000   1.0000000   1.0000000   1.0000000

  Atom        31          32          33          34          35          36          37
 IAtWgt=           1           1           1          12          16          16           1
 AtmWgt=   1.0078250   1.0078250   1.0078250  12.0000000  15.9949146  15.9949146   1.0078250
 NucSpn=           1           1           1           0           0           0           1
 AtZEff=  -0.0000000  -0.0000000  -0.0000000  -0.0000000  -0.0000000  -0.0000000  -0.0000000
 NQMom=    0.0000000   0.0000000   0.0000000   0.0000000   0.0000000   0.0000000   0.0000000
 NMagM=    2.7928460   2.7928460   2.7928460   0.0000000   0.0000000   0.0000000   2.7928460
 AtZNuc=   1.0000000   1.0000000   1.0000000   6.0000000   8.0000000   8.0000000   1.0000000
 Leave Link  101 at Tue Feb 11 11:42:16 2025, MaxMem=  8375500800 cpu:              15.4 elap:               0.5
 (Enter /gpfslocalsup/prod/g16/rev-C01/g16/l103.exe)

 GradGradGradGradGradGradGradGradGradGradGradGradGradGradGradGradGradGrad
 Berny optimization.
 Initialization pass.
                           ----------------------------
                           !    Initial Parameters    !
                           ! (Angstroms and Degrees)  !
 --------------------------                            --------------------------
 ! Name  Definition              Value          Derivative Info.                !
 --------------------------------------------------------------------------------
 ! R1    R(1,2)                  1.326          estimate D2E/DX2                !
 ! R2    R(1,22)                 1.019          estimate D2E/DX2                !
 ! R3    R(2,3)                  1.4422         estimate D2E/DX2                !
 ! R4    R(2,10)                 1.436          estimate D2E/DX2                !
 ! R5    R(3,4)                  1.3792         estimate D2E/DX2                !
 ! R6    R(3,34)                 1.3973         estimate D2E/DX2                !
 ! R7    R(4,5)                  1.0884         estimate D2E/DX2                !
 ! R8    R(4,6)                  1.4235         estimate D2E/DX2                !
 ! R9    R(6,7)                  1.0856         estimate D2E/DX2                !
 ! R10   R(6,8)                  1.3763         estimate D2E/DX2                !
 ! R11   R(8,9)                  1.5167         estimate D2E/DX2                !
 ! R12   R(8,10)                 1.4155         estimate D2E/DX2                !
 ! R13   R(9,18)                 1.5088         estimate D2E/DX2                !
 ! R14   R(9,30)                 1.097          estimate D2E/DX2                !
 ! R15   R(9,31)                 1.097          estimate D2E/DX2                !
 ! R16   R(10,16)                1.4046         estimate D2E/DX2                !
 ! R17   R(11,13)                1.4019         estimate D2E/DX2                !
 ! R18   R(11,17)                1.3987         estimate D2E/DX2                !
 ! R19   R(11,20)                1.4273         estimate D2E/DX2                !
 ! R20   R(12,13)                1.4015         estimate D2E/DX2                !
 ! R21   R(12,19)                1.3928         estimate D2E/DX2                !
 ! R22   R(12,32)                1.0858         estimate D2E/DX2                !
 ! R23   R(13,14)                1.3788         estimate D2E/DX2                !
 ! R24   R(14,16)                1.3454         estimate D2E/DX2                !
 ! R25   R(14,21)                1.0345         estimate D2E/DX2                !
 ! R26   R(15,23)                1.0861         estimate D2E/DX2                !
 ! R27   R(16,18)                1.4321         estimate D2E/DX2                !
 ! R28   R(17,23)                1.3852         estimate D2E/DX2                !
 ! R29   R(17,25)                1.5111         estimate D2E/DX2                !
 ! R30   R(18,20)                1.3635         estimate D2E/DX2                !
 ! R31   R(19,23)                1.4096         estimate D2E/DX2                !
 ! R32   R(19,33)                1.0864         estimate D2E/DX2                !
 ! R33   R(20,24)                1.5059         estimate D2E/DX2                !
 ! R34   R(24,25)                1.5574         estimate D2E/DX2                !
 ! R35   R(24,28)                1.0954         estimate D2E/DX2                !
 ! R36   R(24,29)                1.0954         estimate D2E/DX2                !
 ! R37   R(25,26)                1.0952         estimate D2E/DX2                !
 ! R38   R(25,27)                1.0952         estimate D2E/DX2                !
 ! R39   R(34,35)                1.2165         estimate D2E/DX2                !
 ! R40   R(34,36)                1.3416         estimate D2E/DX2                !
 ! R41   R(36,37)                0.9803         estimate D2E/DX2                !
 ! A1    A(2,1,22)             110.3621         estimate D2E/DX2                !
 ! A2    A(1,2,3)              128.2239         estimate D2E/DX2                !
 ! A3    A(1,2,10)             118.6802         estimate D2E/DX2                !
 ! A4    A(3,2,10)             113.0959         estimate D2E/DX2                !
 ! A5    A(2,3,4)              121.4548         estimate D2E/DX2                !
 ! A6    A(2,3,34)             118.667          estimate D2E/DX2                !
 ! A7    A(4,3,34)             119.8782         estimate D2E/DX2                !
 ! A8    A(3,4,5)              118.1895         estimate D2E/DX2                !
 ! A9    A(3,4,6)              123.642          estimate D2E/DX2                !
 ! A10   A(5,4,6)              118.1685         estimate D2E/DX2                !
 ! A11   A(4,6,7)              120.533          estimate D2E/DX2                !
 ! A12   A(4,6,8)              117.1291         estimate D2E/DX2                !
 ! A13   A(7,6,8)              122.3379         estimate D2E/DX2                !
 ! A14   A(6,8,9)              130.8155         estimate D2E/DX2                !
 ! A15   A(6,8,10)             119.7933         estimate D2E/DX2                !
 ! A16   A(9,8,10)             109.3912         estimate D2E/DX2                !
 ! A17   A(8,9,18)             103.2369         estimate D2E/DX2                !
 ! A18   A(8,9,30)             111.8796         estimate D2E/DX2                !
 ! A19   A(8,9,31)             111.8796         estimate D2E/DX2                !
 ! A20   A(18,9,30)            111.6702         estimate D2E/DX2                !
 ! A21   A(18,9,31)            111.6701         estimate D2E/DX2                !
 ! A22   A(30,9,31)            106.6231         estimate D2E/DX2                !
 ! A23   A(2,10,8)             124.8849         estimate D2E/DX2                !
 ! A24   A(2,10,16)            126.2808         estimate D2E/DX2                !
 ! A25   A(8,10,16)            108.8344         estimate D2E/DX2                !
 ! A26   A(13,11,17)           123.1671         estimate D2E/DX2                !
 ! A27   A(13,11,20)           124.4176         estimate D2E/DX2                !
 ! A28   A(17,11,20)           112.4153         estimate D2E/DX2                !
 ! A29   A(13,12,19)           118.6299         estimate D2E/DX2                !
 ! A30   A(13,12,32)           120.7017         estimate D2E/DX2                !
 ! A31   A(19,12,32)           120.6684         estimate D2E/DX2                !
 ! A32   A(11,13,12)           118.1274         estimate D2E/DX2                !
 ! A33   A(11,13,14)           116.1249         estimate D2E/DX2                !
 ! A34   A(12,13,14)           125.7478         estimate D2E/DX2                !
 ! A35   A(13,14,16)           120.6037         estimate D2E/DX2                !
 ! A36   A(13,14,21)           125.7901         estimate D2E/DX2                !
 ! A37   A(16,14,21)           113.6062         estimate D2E/DX2                !
 ! A38   A(10,16,14)           125.2402         estimate D2E/DX2                !
 ! A39   A(10,16,18)           110.8668         estimate D2E/DX2                !
 ! A40   A(14,16,18)           123.893          estimate D2E/DX2                !
 ! A41   A(11,17,23)           118.6207         estimate D2E/DX2                !
 ! A42   A(11,17,25)           108.8826         estimate D2E/DX2                !
 ! A43   A(23,17,25)           132.4967         estimate D2E/DX2                !
 ! A44   A(9,18,16)            107.6708         estimate D2E/DX2                !
 ! A45   A(9,18,20)            134.6852         estimate D2E/DX2                !
 ! A46   A(16,18,20)           117.644          estimate D2E/DX2                !
 ! A47   A(12,19,23)           122.864          estimate D2E/DX2                !
 ! A48   A(12,19,33)           118.3667         estimate D2E/DX2                !
 ! A49   A(23,19,33)           118.7693         estimate D2E/DX2                !
 ! A50   A(11,20,18)           117.3168         estimate D2E/DX2                !
 ! A51   A(11,20,24)           108.2948         estimate D2E/DX2                !
 ! A52   A(18,20,24)           134.3884         estimate D2E/DX2                !
 ! A53   A(15,23,17)           121.6038         estimate D2E/DX2                !
 ! A54   A(15,23,19)           119.8052         estimate D2E/DX2                !
 ! A55   A(17,23,19)           118.591          estimate D2E/DX2                !
 ! A56   A(20,24,25)           105.2456         estimate D2E/DX2                !
 ! A57   A(20,24,28)           110.7514         estimate D2E/DX2                !
 ! A58   A(20,24,29)           110.7517         estimate D2E/DX2                !
 ! A59   A(25,24,28)           111.8504         estimate D2E/DX2                !
 ! A60   A(25,24,29)           111.8506         estimate D2E/DX2                !
 ! A61   A(28,24,29)           106.4772         estimate D2E/DX2                !
 ! A62   A(17,25,24)           105.1617         estimate D2E/DX2                !
 ! A63   A(17,25,26)           111.0845         estimate D2E/DX2                !
 ! A64   A(17,25,27)           111.0842         estimate D2E/DX2                !
 ! A65   A(24,25,26)           111.4846         estimate D2E/DX2                !
 ! A66   A(24,25,27)           111.4843         estimate D2E/DX2                !
 ! A67   A(26,25,27)           106.6324         estimate D2E/DX2                !
 ! A68   A(3,34,35)            126.664          estimate D2E/DX2                !
 ! A69   A(3,34,36)            111.501          estimate D2E/DX2                !
 ! A70   A(35,34,36)           121.835          estimate D2E/DX2                !
 ! A71   A(34,36,37)           104.262          estimate D2E/DX2                !
 ! D1    D(22,1,2,3)             0.0            estimate D2E/DX2                !
 ! D2    D(22,1,2,10)         -180.0            estimate D2E/DX2                !
 ! D3    D(1,2,3,4)           -180.0            estimate D2E/DX2                !
 ! D4    D(1,2,3,34)             0.0            estimate D2E/DX2                !
 ! D5    D(10,2,3,4)             0.0            estimate D2E/DX2                !
 ! D6    D(10,2,3,34)          180.0            estimate D2E/DX2                !
 ! D7    D(1,2,10,8)          -180.0            estimate D2E/DX2                !
 ! D8    D(1,2,10,16)           -0.0001         estimate D2E/DX2                !
 ! D9    D(3,2,10,8)             0.0            estimate D2E/DX2                !
 ! D10   D(3,2,10,16)          180.0            estimate D2E/DX2                !
 ! D11   D(2,3,4,5)            180.0            estimate D2E/DX2                !
 ! D12   D(2,3,4,6)              0.0            estimate D2E/DX2                !
 ! D13   D(34,3,4,5)             0.0            estimate D2E/DX2                !
 ! D14   D(34,3,4,6)          -180.0            estimate D2E/DX2                !
 ! D15   D(2,3,34,35)            3.4104         estimate D2E/DX2                !
 ! D16   D(2,3,34,36)         -176.5906         estimate D2E/DX2                !
 ! D17   D(4,3,34,35)         -176.5896         estimate D2E/DX2                !
 ! D18   D(4,3,34,36)            3.4094         estimate D2E/DX2                !
 ! D19   D(3,4,6,7)            180.0            estimate D2E/DX2                !
 ! D20   D(3,4,6,8)              0.0            estimate D2E/DX2                !
 ! D21   D(5,4,6,7)              0.0            estimate D2E/DX2                !
 ! D22   D(5,4,6,8)            180.0            estimate D2E/DX2                !
 ! D23   D(4,6,8,9)            180.0            estimate D2E/DX2                !
 ! D24   D(4,6,8,10)             0.0            estimate D2E/DX2                !
 ! D25   D(7,6,8,9)              0.0            estimate D2E/DX2                !
 ! D26   D(7,6,8,10)          -179.9999         estimate D2E/DX2                !
 ! D27   D(6,8,9,18)          -180.0            estimate D2E/DX2                !
 ! D28   D(6,8,9,30)           -59.7847         estimate D2E/DX2                !
 ! D29   D(6,8,9,31)            59.7849         estimate D2E/DX2                !
 ! D30   D(10,8,9,18)            0.0            estimate D2E/DX2                !
 ! D31   D(10,8,9,30)          120.2152         estimate D2E/DX2                !
 ! D32   D(10,8,9,31)         -120.2152         estimate D2E/DX2                !
 ! D33   D(6,8,10,2)            -0.0001         estimate D2E/DX2                !
 ! D34   D(6,8,10,16)          180.0            estimate D2E/DX2                !
 ! D35   D(9,8,10,2)          -180.0            estimate D2E/DX2                !
 ! D36   D(9,8,10,16)            0.0001         estimate D2E/DX2                !
 ! D37   D(8,9,18,16)            0.0            estimate D2E/DX2                !
 ! D38   D(8,9,18,20)          180.0            estimate D2E/DX2                !
 ! D39   D(30,9,18,16)        -120.3585         estimate D2E/DX2                !
 ! D40   D(30,9,18,20)          59.6415         estimate D2E/DX2                !
 ! D41   D(31,9,18,16)         120.3585         estimate D2E/DX2                !
 ! D42   D(31,9,18,20)         -59.6416         estimate D2E/DX2                !
 ! D43   D(2,10,16,14)           0.0            estimate D2E/DX2                !
 ! D44   D(2,10,16,18)         180.0            estimate D2E/DX2                !
 ! D45   D(8,10,16,14)         180.0            estimate D2E/DX2                !
 ! D46   D(8,10,16,18)          -0.0001         estimate D2E/DX2                !
 ! D47   D(17,11,13,12)          0.0            estimate D2E/DX2                !
 ! D48   D(17,11,13,14)        179.9999         estimate D2E/DX2                !
 ! D49   D(20,11,13,12)        180.0            estimate D2E/DX2                !
 ! D50   D(20,11,13,14)         -0.0001         estimate D2E/DX2                !
 ! D51   D(13,11,17,23)          0.0001         estimate D2E/DX2                !
 ! D52   D(13,11,17,25)       -179.9999         estimate D2E/DX2                !
 ! D53   D(20,11,17,23)       -179.9999         estimate D2E/DX2                !
 ! D54   D(20,11,17,25)          0.0001         estimate D2E/DX2                !
 ! D55   D(13,11,20,18)          0.0001         estimate D2E/DX2                !
 ! D56   D(13,11,20,24)       -179.9998         estimate D2E/DX2                !
 ! D57   D(17,11,20,18)       -179.9999         estimate D2E/DX2                !
 ! D58   D(17,11,20,24)          0.0002         estimate D2E/DX2                !
 ! D59   D(19,12,13,11)         -0.0001         estimate D2E/DX2                !
 ! D60   D(19,12,13,14)       -180.0            estimate D2E/DX2                !
 ! D61   D(32,12,13,11)       -179.9999         estimate D2E/DX2                !
 ! D62   D(32,12,13,14)          0.0002         estimate D2E/DX2                !
 ! D63   D(13,12,19,23)          0.0001         estimate D2E/DX2                !
 ! D64   D(13,12,19,33)       -179.9999         estimate D2E/DX2                !
 ! D65   D(32,12,19,23)        180.0            estimate D2E/DX2                !
 ! D66   D(32,12,19,33)          0.0            estimate D2E/DX2                !
 ! D67   D(11,13,14,16)          0.0001         estimate D2E/DX2                !
 ! D68   D(11,13,14,21)       -180.0            estimate D2E/DX2                !
 ! D69   D(12,13,14,16)        180.0            estimate D2E/DX2                !
 ! D70   D(12,13,14,21)         -0.0001         estimate D2E/DX2                !
 ! D71   D(13,14,16,10)        180.0            estimate D2E/DX2                !
 ! D72   D(13,14,16,18)          0.0            estimate D2E/DX2                !
 ! D73   D(21,14,16,10)          0.0            estimate D2E/DX2                !
 ! D74   D(21,14,16,18)       -180.0            estimate D2E/DX2                !
 ! D75   D(10,16,18,9)           0.0            estimate D2E/DX2                !
 ! D76   D(10,16,18,20)       -180.0            estimate D2E/DX2                !
 ! D77   D(14,16,18,9)        -180.0            estimate D2E/DX2                !
 ! D78   D(14,16,18,20)          0.0            estimate D2E/DX2                !
 ! D79   D(11,17,23,15)        179.9999         estimate D2E/DX2                !
 ! D80   D(11,17,23,19)          0.0            estimate D2E/DX2                !
 ! D81   D(25,17,23,15)         -0.0002         estimate D2E/DX2                !
 ! D82   D(25,17,23,19)        179.9999         estimate D2E/DX2                !
 ! D83   D(11,17,25,24)         -0.0004         estimate D2E/DX2                !
 ! D84   D(11,17,25,26)       -120.7417         estimate D2E/DX2                !
 ! D85   D(11,17,25,27)        120.7405         estimate D2E/DX2                !
 ! D86   D(23,17,25,24)        179.9997         estimate D2E/DX2                !
 ! D87   D(23,17,25,26)         59.2583         estimate D2E/DX2                !
 ! D88   D(23,17,25,27)        -59.2594         estimate D2E/DX2                !
 ! D89   D(9,18,20,11)         179.9999         estimate D2E/DX2                !
 ! D90   D(9,18,20,24)          -0.0001         estimate D2E/DX2                !
 ! D91   D(16,18,20,11)         -0.0001         estimate D2E/DX2                !
 ! D92   D(16,18,20,24)        179.9999         estimate D2E/DX2                !
 ! D93   D(12,19,23,15)       -180.0            estimate D2E/DX2                !
 ! D94   D(12,19,23,17)         -0.0001         estimate D2E/DX2                !
 ! D95   D(33,19,23,15)          0.0            estimate D2E/DX2                !
 ! D96   D(33,19,23,17)        179.9999         estimate D2E/DX2                !
 ! D97   D(11,20,24,25)         -0.0004         estimate D2E/DX2                !
 ! D98   D(11,20,24,28)        121.0499         estimate D2E/DX2                !
 ! D99   D(11,20,24,29)       -121.051          estimate D2E/DX2                !
 ! D100  D(18,20,24,25)        179.9997         estimate D2E/DX2                !
 ! D101  D(18,20,24,28)        -58.9501         estimate D2E/DX2                !
 ! D102  D(18,20,24,29)         58.9491         estimate D2E/DX2                !
 ! D103  D(20,24,25,17)          0.0005         estimate D2E/DX2                !
 ! D104  D(20,24,25,26)        120.4784         estimate D2E/DX2                !
 ! D105  D(20,24,25,27)       -120.4769         estimate D2E/DX2                !
 ! D106  D(28,24,25,17)       -120.3278         estimate D2E/DX2                !
 ! D107  D(28,24,25,26)          0.1502         estimate D2E/DX2                !
 ! D108  D(28,24,25,27)        119.1948         estimate D2E/DX2                !
 ! D109  D(29,24,25,17)        120.3291         estimate D2E/DX2                !
 ! D110  D(29,24,25,26)       -119.1929         estimate D2E/DX2                !
 ! D111  D(29,24,25,27)         -0.1482         estimate D2E/DX2                !
 ! D112  D(3,34,36,37)        -179.9995         estimate D2E/DX2                !
 ! D113  D(35,34,36,37)         -0.0005         estimate D2E/DX2                !
 --------------------------------------------------------------------------------
 Trust Radius=3.00D-01 FncErr=1.00D-07 GrdErr=1.00D-06 EigMax=2.50D+02 EigMin=1.00D-04
 Number of steps in this run=    222 maximum allowed number of steps=    222.
 GradGradGradGradGradGradGradGradGradGradGradGradGradGradGradGradGradGrad

 Leave Link  103 at Tue Feb 11 11:42:17 2025, MaxMem=  8375500800 cpu:               1.4 elap:               0.1
 (Enter /gpfslocalsup/prod/g16/rev-C01/g16/l202.exe)
                          Input orientation:                          
 ---------------------------------------------------------------------
 Center     Atomic      Atomic             Coordinates (Angstroms)
 Number     Number       Type             X           Y           Z
 ---------------------------------------------------------------------
      1          7           0        1.937872    1.564948    0.000014
      2          6           0        1.398082    0.353816    0.000011
      3          6           0        0.000000    0.000000    0.000000
      4          6           0       -0.409056   -1.317133   -0.000001
      5          1           0       -1.477709   -1.523629   -0.000009
      6          6           0        0.488778   -2.421720    0.000008
      7          1           0        0.111035   -3.439507    0.000007
      8          6           0        1.835121   -2.136138    0.000018
      9          6           0        3.043084   -3.053318    0.000030
     10          6           0        2.268243   -0.788527    0.000020
     11          6           0        6.341981   -1.033382    0.000053
     12          6           0        6.694301    1.345270    0.000052
     13          6           0        5.805360    0.261798    0.000047
     14          7           0        4.429278    0.348846    0.000035
     15          1           0        9.670017   -0.365094    0.000079
     16          6           0        3.672601   -0.763598    0.000031
     17          6           0        7.716571   -1.292164    0.000063
     18          6           0        4.206382   -2.092508    0.000038
     19          6           0        8.062694    1.085782    0.000064
     20          6           0        5.563015   -2.229359    0.000050
     21          1           0        3.878469    1.224515    0.000029
     22          1           0        1.209627    2.277704    0.000007
     23          6           0        8.593608   -0.219966    0.000069
     24          6           0        6.503120   -3.405822    0.000063
     25          6           0        7.932640   -2.787731    0.000064
     26          1           0        8.505939   -3.102977    0.878328
     27          1           0        8.505934   -3.102972   -0.878205
     28          1           0        6.332647   -4.038868    0.877670
     29          1           0        6.332654   -4.038889   -0.877531
     30          1           0        3.058868   -3.708535    0.879700
     31          1           0        3.058883   -3.708538   -0.879638
     32          1           0        6.324162    2.366045    0.000049
     33          1           0        8.747930    1.928839    0.000070
     34          6           0       -0.950640    1.024129   -0.000009
     35          8           0       -0.730896    2.219234   -0.058059
     36          8           0       -2.198421    0.536809    0.074216
     37          1           0       -2.769632    1.333418    0.066857
 ---------------------------------------------------------------------
                    Distance matrix (angstroms):
                    1          2          3          4          5
     1  N    0.000000
     2  C    1.325977   0.000000
     3  C    2.490865   1.442158   0.000000
     4  C    3.716781   2.461264   1.379190   0.000000
     5  H    4.604943   3.434381   2.122515   1.088421   0.000000
     6  C    4.241862   2.920691   2.470553   1.423453   2.161860
     7  H    5.327467   4.005720   3.441299   2.185170   2.488915
     8  C    3.702512   2.528018   2.816160   2.388954   3.368978
     9  C    4.748671   3.783463   4.310813   3.864144   4.772580
    10  C    2.376550   1.436011   2.401396   2.728984   3.817399
    11  C    5.113462   5.134828   6.425621   6.756997   7.835043
    12  C    4.761499   5.388220   6.828134   7.585913   8.660966
    13  C    4.081135   4.408239   5.811260   6.411863   7.498723
    14  N    2.772365   3.031200   4.442994   5.117124   6.196665
    15  H    7.969387   8.303116   9.676907  10.123937  11.207765
    16  C    2.903689   2.534177   3.751144   4.119020   5.206087
    17  C    6.446429   6.529361   7.824011   8.125665   9.197193
    18  C    4.303850   3.724386   4.698110   4.680115   5.712488
    19  C    6.143537   6.704687   8.135475   8.805938   9.890820
    20  C    5.247707   4.900965   5.993094   6.041340   7.076005
    21  H    1.970231   2.628771   4.067181   4.984260   6.020045
    22  H    1.019000   1.933096   2.578979   3.942460   4.655310
    23  C    6.890917   7.218367   8.596423   9.069274  10.155342
    24  C    6.749077   6.340054   7.340994   7.220859   8.199773
    25  C    7.408310   7.250501   8.408223   8.470334   9.494873
    26  H    8.105582   7.952515   9.096754   9.134431  10.145888
    27  H    8.105565   7.952497   9.096735   9.134413  10.145870
    28  H    7.175450   6.664525   7.562088   7.323162   8.252176
    29  H    7.175457   6.664528   7.562089   7.323160   8.252172
    30  H    5.462609   4.476020   4.887103   4.303391   5.111578
    31  H    5.462610   4.476021   4.887104   4.303392   5.111579
    32  H    4.458845   5.321215   6.752273   7.674765   8.717726
    33  H    6.819773   7.516712   8.958052   9.715283  10.792740
    34  C    2.938705   2.442502   1.397340   2.403086   2.601706
    35  O    2.748415   2.831202   2.337216   3.551456   3.817083
    36  O    4.262804   3.601920   2.264228   2.577680   2.184111
    37  H    4.713668   4.281814   3.074628   3.549959   3.136280
                    6          7          8          9         10
     6  C    0.000000
     7  H    1.085624   0.000000
     8  C    1.376298   2.161306   0.000000
     9  C    2.631235   2.957373   1.516705   0.000000
    10  C    2.415329   3.417783   1.415503   2.393670   0.000000
    11  C    6.015602   6.679381   4.639812   3.868186   4.081090
    12  C    7.259389   8.138396   5.977611   5.716552   4.913561
    13  C    5.955444   6.791539   4.638200   4.315109   3.689767
    14  N    4.817009   5.744462   3.592325   3.673725   2.442067
    15  H    9.408765  10.041223   8.032571   7.151419   7.413876
    16  C    3.589721   4.454800   2.293512   2.374681   1.404579
    17  C    7.315524   7.902864   5.941696   4.994311   5.471556
    18  C    3.732152   4.311180   2.371662   1.508780   2.335969
    19  C    8.346662   9.149160   7.011664   6.506046   6.090049
    20  C    5.077882   5.584670   3.729059   2.651219   3.596042
    21  H    4.978457   5.995553   3.933098   4.358638   2.577822
    22  H    4.754388   5.821804   4.457942   5.637496   3.243831
    23  C    8.398571   9.073009   7.024874   6.231870   6.350866
    24  C    6.094322   6.392174   4.837594   3.477946   4.978395
    25  C    7.452855   7.848714   6.132235   4.896764   6.006847
    26  H    8.093851   8.447432   6.797501   5.533232   6.710958
    27  H    8.093834   8.447416   6.797484   5.533217   6.710941
    28  H    6.126685   6.311734   4.961693   3.544402   5.277724
    29  H    6.126679   6.311725   4.961689   3.544395   5.277725
    30  H    3.005847   3.088034   2.178033   1.096986   3.150456
    31  H    3.005847   3.088035   2.178033   1.096986   3.150456
    32  H    7.548139   8.503375   6.357762   6.335217   5.138269
    33  H    9.334932  10.169321   8.019412   7.574111   7.026409
    34  C    3.734408   4.588159   4.212808   5.707487   3.694175
    35  O    4.798899   5.721326   5.055401   6.484297   4.247921
    36  O    3.997429   4.598933   4.839381   6.353573   4.659733
    37  H    4.972200   5.575260   5.765938   7.282554   5.466928
                   11         12         13         14         15
    11  C    0.000000
    12  C    2.404603   0.000000
    13  C    1.401946   1.401473   0.000000
    14  N    2.359870   2.474508   1.378832   0.000000
    15  H    3.394471   3.432234   3.915171   5.289145   0.000000
    16  C    2.682978   3.684833   2.366453   1.345396   6.010641
    17  C    1.398737   2.828621   2.463235   3.674127   2.162270
    18  C    2.383806   4.243590   2.845960   2.451508   5.730207
    19  C    2.729782   1.392779   2.403020   3.707396   2.165301
    20  C    1.427287   3.749371   2.502917   2.816470   4.510316
    21  H    3.341705   2.818420   2.154004   1.034498   6.005738
    22  H    6.107729   5.563370   5.018430   3.753218   8.863553
    23  C    2.394049   2.461165   2.829562   4.202998   1.086148
    24  C    2.377906   4.754937   3.733404   4.289330   4.390360
    25  C    2.368108   4.314531   3.718191   4.702304   2.981216
    26  H    3.120465   4.882653   4.402978   5.413469   3.102000
    27  H    3.120454   4.882643   4.402965   5.413453   3.102007
    28  H    3.131013   5.467170   4.420858   4.862622   5.040319
    29  H    3.131024   5.467185   4.420870   4.862631   5.040333
    30  H    4.325396   6.287376   4.907194   4.371976   7.460538
    31  H    4.325396   6.287376   4.907194   4.371976   7.460537
    32  H    3.399474   1.085811   2.167259   2.767612   4.319012
    33  H    3.816195   2.134934   3.381973   4.598601   2.472321
    34  C    7.577313   7.651683   6.798874   5.422133  10.711130
    35  O    7.785144   7.476679   6.823311   5.489000  10.717328
    36  O    8.683863   8.929704   8.008848   6.630779  11.902888
    37  H    9.414228   9.464176   8.641951   7.266234  12.555249
                   16         17         18         19         20
    16  C    0.000000
    17  C    4.078367   0.000000
    18  C    1.432105   3.600275   0.000000
    19  C    4.763730   2.403004   4.997266   0.000000
    20  C    2.392095   2.348646   1.363518   4.151934   0.000000
    21  H    1.998743   4.589630   3.333192   4.186524   3.842778
    22  H    3.913535   7.421878   5.298990   6.955947   6.266227
    23  C    4.950944   1.385208   4.770133   1.409556   3.636228
    24  C    3.872103   2.437214   2.645713   4.754659   1.505942
    25  C    4.716465   1.511094   3.790558   3.875696   2.434523
    26  H    5.441071   2.161827   4.503180   4.302734   3.193021
    27  H    5.441055   2.161822   4.503165   4.302729   3.193009
    28  H    4.309697   3.198409   3.013230   5.479534   2.153340
    29  H    4.309702   3.198421   3.013231   5.479550   2.153344
    30  H    3.134189   5.320414   2.168441   6.985521   3.038503
    31  H    3.134189   5.320413   2.168441   6.985521   3.038503
    32  H    4.101883   3.914243   4.935959   2.159066   4.658013
    33  H    5.745275   3.382094   6.066044   1.086413   5.237776
    34  C    4.956847   8.971386   6.025637   9.013545   7.280995
    35  O    5.318970   9.148387   6.555243   8.866528   7.707572
    36  O    6.013773  10.082545   6.923894  10.276057   8.239968
    37  H    6.775272  10.810115   7.772143  10.835362   9.062607
                   21         22         23         24         25
    21  H    0.000000
    22  H    2.869133   0.000000
    23  C    4.931436   7.794968   0.000000
    24  C    5.322482   7.766823   3.810488   0.000000
    25  C    5.703895   8.417692   2.651470   1.557422   0.000000
    26  H    6.396255   9.108202   3.015092   2.207793   1.095171
    27  H    6.396239   9.108185   3.015091   2.207790   1.095171
    28  H    5.873367   8.180141   4.523952   1.095446   2.212581
    29  H    5.873377   8.180148   4.523966   1.095447   2.212583
    30  H    5.077455   6.326817   6.601304   3.567670   5.037390
    31  H    5.077455   6.326817   6.601303   3.567671   5.037387
    32  H    2.698982   5.115298   3.440616   5.774641   5.398945
    33  H    4.920134   7.546371   2.154339   5.787727   4.786515
    34  C    4.833265   2.497640   9.624991   8.670814   9.666589
    35  O    4.715833   1.942272   9.638436   9.163821  10.006494
    36  O    6.116129   3.827665  10.818785   9.553358  10.662854
    37  H    6.649329   4.090311  11.469119  10.413875  11.468520
                   26         27         28         29         30
    26  H    0.000000
    27  H    1.756533   0.000000
    28  H    2.366240   2.946553   0.000000
    29  H    2.946547   2.366239   1.755201   0.000000
    30  H    5.480628   5.755646   3.290403   3.730237   0.000000
    31  H    5.755655   5.480609   3.730252   3.290397   1.759338
    32  H    5.953295   5.953285   6.464766   6.464781   6.952442
    33  H    5.113616   5.113614   6.497484   6.497501   8.057243
    34  C   10.355258  10.355240   8.913503   8.913505   6.264835
    35  O   10.701489  10.691938   9.483305   9.472559   7.097897
    36  O   11.334812  11.346291   9.713984   9.727388   6.805207
    37  H   12.144076  12.153727  10.600489  10.611558   7.749414
                   31         32         33         34         35
    31  H    0.000000
    32  H    6.952442   0.000000
    33  H    8.057243   2.462885   0.000000
    34  C    6.264836   7.397532   9.740676   0.000000
    35  O    7.083495   7.056824   9.483451   1.216525   0.000000
    36  O    6.824372   8.716997  11.034757   1.341622   2.236444
    37  H    7.764584   9.152479  11.533136   1.846310   2.226369
                   36         37
    36  O    0.000000
    37  H    0.980267   0.000000
 Stoichiometry    C19H14N2O2
 Framework group  C1[X(C19H14N2O2)]
 Deg. of freedom   105
 Full point group                 C1      NOp   1
 Largest Abelian subgroup         C1      NOp   1
 Largest concise Abelian subgroup C1      NOp   1
                         Standard orientation:                         
 ---------------------------------------------------------------------
 Center     Atomic      Atomic             Coordinates (Angstroms)
 Number     Number       Type             X           Y           Z
 ---------------------------------------------------------------------
      1          7           0       -1.929333   -1.890106   -0.000603
      2          6           0       -2.253169   -0.604284    0.002220
      3          6           0       -3.569744   -0.015690    0.004631
      4          6           0       -3.746589    1.352113    0.007472
      5          1           0       -4.763920    1.739016    0.009202
      6          6           0       -2.672441    2.286150    0.008268
      7          1           0       -2.869832    3.353676    0.010542
      8          6           0       -1.395122    1.773659    0.006044
      9          6           0       -0.047626    2.469827    0.006113
     10          6           0       -1.199802    0.371699    0.003118
     11          6           0        2.855483   -0.086491   -0.001661
     12          6           0        2.794182   -2.490307   -0.006298
     13          6           0        2.104462   -1.270306   -0.003254
     14          7           0        0.733869   -1.119806   -0.001647
     15          1           0        6.019362   -1.316235   -0.007093
     16          6           0        0.179422    0.106030    0.001278
     17          6           0        4.254091   -0.067551   -0.002961
     18          6           0        0.933437    1.323562    0.002934
     19          6           0        4.186807   -2.469608   -0.007591
     20          6           0        2.293421    1.225464    0.001439
     21          1           0        0.040896   -1.887904   -0.002484
     22          1           0       -2.769137   -2.467247   -0.000926
     23          6           0        4.934020   -1.274402   -0.005971
     24          6           0        3.421552    2.223052    0.002304
     25          6           0        4.723725    1.368710   -0.000602
     26          1           0        5.341801    1.582562   -0.879037
     27          1           0        5.343463    1.579126    0.877492
     28          1           0        3.361464    2.877680   -0.873969
     29          1           0        3.363141    2.874270    0.881228
     30          1           0        0.079582    3.114322   -0.872421
     31          1           0        0.081267    3.110885    0.886913
     32          1           0        2.254284   -3.432375   -0.007623
     33          1           0        4.717124   -3.417792   -0.009953
     34          6           0       -4.682100   -0.861398    0.004044
     35          8           0       -4.670750   -2.076596    0.059709
     36          8           0       -5.827755   -0.166941   -0.067737
     37          1           0       -6.527246   -0.853666   -0.061055
 ---------------------------------------------------------------------
 Rotational constants (GHZ):           0.6727143           0.1486178           0.1220083
 Leave Link  202 at Tue Feb 11 11:42:18 2025, MaxMem=  8375500800 cpu:               1.4 elap:               0.1
 (Enter /gpfslocalsup/prod/g16/rev-C01/g16/l301.exe)
 Standard basis: 6-31+G(d,p) (6D, 7F)
 Ernie: Thresh=  0.10000D-02 Tol=  0.10000D-05 Strict=F.
 There are   507 symmetry adapted cartesian basis functions of A   symmetry.
 There are   507 symmetry adapted basis functions of A   symmetry.
   507 basis functions,   834 primitive gaussians,   507 cartesian basis functions
    79 alpha electrons       79 beta electrons
       nuclear repulsion energy      1785.1757588205 Hartrees.
 IExCor= 1009 DFT=T Ex+Corr=PBE1PBE ExCW=0 ScaHFX=  0.250000
 ScaDFX=  0.750000  0.750000  1.000000  1.000000 ScalE2=  1.000000  1.000000
 IRadAn=      5 IRanWt=     -1 IRanGd=            0 ICorTp=0 IEmpDi=  4
 NAtoms=   37 NActive=   37 NUniq=   37 SFac= 1.00D+00 NAtFMM=   60 NAOKFM=F Big=F
 Integral buffers will be    131072 words long.
 Raffenetti 2 integral format.
 Two-electron integral symmetry is turned on.
 ------------------------------------------------------------------------------
 Polarizable Continuum Model (PCM)
 =================================
 Model                : PCM.
 Atomic radii         : UFF (Universal Force Field).
 Polarization charges : Total charges.
 Charge compensation  : None.
 Solution method      : On-the-fly selection.
 Cavity type          : Scaled VdW (van der Waals Surface) (Alpha=1.100).
 Cavity algorithm     : GePol (No added spheres)
                        Default sphere list used, NSphG=   37.
                        Lebedev-Laikov grids with approx.  5.0 points / Ang**2.
                        Smoothing algorithm: York/Karplus (Gamma=1.0000).
                        Polarization charges: spherical gaussians, with
                                              point-specific exponents (IZeta= 3).
                        Self-potential: point-specific (ISelfS= 7).
                        Self-field    : sphere-specific E.n sum rule (ISelfD= 2).
 1st derivatives      : Analytical E(r).r(x)/FMM algorithm (CHGder, D1EAlg=3).
                        Cavity 1st derivative terms included.
 Solvent              : Acetonitrile, Eps=  35.688000 Eps(inf)=   1.806874
 ------------------------------------------------------------------------------
 GePol: Number of generator spheres                  =      37
 GePol: Total number of spheres                      =      37
 GePol: Number of exposed spheres                    =      37 (100.00%)
 GePol: Number of points                             =    2835
 GePol: Average weight of points                     =       0.12
 GePol: Minimum weight of points                     =   0.75D-09
 GePol: Maximum weight of points                     =    0.20577
 GePol: Number of points with low weight             =     183
 GePol: Fraction of low-weight points (<1% of avg)   =       6.46%
 GePol: Cavity surface area                          =    349.266 Ang**2
 GePol: Cavity volume                                =    388.880 Ang**3
 Leave Link  301 at Tue Feb 11 11:42:18 2025, MaxMem=  8375500800 cpu:               7.7 elap:               0.3
 (Enter /gpfslocalsup/prod/g16/rev-C01/g16/l302.exe)
 NPDir=0 NMtPBC=     1 NCelOv=     1 NCel=       1 NClECP=     1 NCelD=      1
         NCelK=      1 NCelE2=     1 NClLst=     1 CellRange=     0.0.
 One-electron integrals computed using PRISM.
 One-electron integral symmetry used in STVInt
 NBasis=   507 RedAO= T EigKep=  1.01D-06  NBF=   507
 NBsUse=   498 1.00D-06 EigRej=  6.49D-07 NBFU=   498
 Precomputing XC quadrature grid using
 IXCGrd= 4 IRadAn=           5 IRanWt=          -1 IRanGd=           0 AccXCQ= 0.00D+00.
 Generated NRdTot=       0 NPtTot=           0 NUsed=           0 NTot=          32
 NSgBfM=   502   502   502   502   502 MxSgAt=    37 MxSgA2=    37.
 Leave Link  302 at Tue Feb 11 11:42:20 2025, MaxMem=  8375500800 cpu:              21.4 elap:               0.6
 (Enter /gpfslocalsup/prod/g16/rev-C01/g16/l303.exe)
 DipDrv:  MaxL=1.
 Leave Link  303 at Tue Feb 11 11:42:20 2025, MaxMem=  8375500800 cpu:               3.1 elap:               0.2
 (Enter /gpfslocalsup/prod/g16/rev-C01/g16/l401.exe)
 ExpMin= 4.38D-02 ExpMax= 5.48D+03 ExpMxC= 8.25D+02 IAcc=3 IRadAn=         5 AccDes= 0.00D+00
 Harris functional with IExCor= 1009 and IRadAn=       5 diagonalized for initial guess.
 HarFok:  IExCor= 1009 AccDes= 0.00D+00 IRadAn=         5 IDoV= 1 UseB2=F ITyADJ=14
 ICtDFT=  3500011 ScaDFX=  1.000000  1.000000  1.000000  1.000000
 FoFCou: FMM=F IPFlag=           0 FMFlag=      100000 FMFlg1=           0
         NFxFlg=           0 DoJE=T BraDBF=F KetDBF=T FulRan=T
         wScrn=  0.000000 ICntrl=       500 IOpCl=  0 I1Cent=   200000004 NGrid=           0
         NMat0=    1 NMatS0=      1 NMatT0=    0 NMatD0=    1 NMtDS0=    0 NMtDT0=    0
 Petite list used in FoFCou.
 Harris En= -991.581229822598    
 JPrj=0 DoOrth=F DoCkMO=F.
 Leave Link  401 at Tue Feb 11 11:42:22 2025, MaxMem=  8375500800 cpu:              44.1 elap:               1.2
 (Enter /gpfslocalsup/prod/g16/rev-C01/g16/l502.exe)
 Integral symmetry usage will be decided dynamically.
 Closed shell SCF:
 Using DIIS extrapolation, IDIIS=  1040.
 NGot=  8375500800 LenX=  8374960552 LenY=  8374702996
 Requested convergence on RMS density matrix=1.00D-08 within 128 cycles.
 Requested convergence on MAX density matrix=1.00D-06.
 Requested convergence on             energy=1.00D-06.
 No special actions if energy rises.
 Fock matrices will be formed incrementally for  20 cycles.

 Cycle   1  Pass 1  IDiag  1:
 FoFJK:  IHMeth= 1 ICntrl=       0 DoSepK=F KAlg= 0 I1Cent=           0 FoldK=F
 IRaf= 790000000 NMat=       1 IRICut=       1 DoRegI=T DoRafI=F ISym2E= 0 IDoP0=0 IntGTp=1.
 FoFCou: FMM=F IPFlag=           0 FMFlag=      100000 FMFlg1=           0
         NFxFlg=           0 DoJE=F BraDBF=F KetDBF=F FulRan=T
         wScrn=  0.000000 ICntrl=         0 IOpCl=  0 I1Cent=           0 NGrid=           0
         NMat0=    1 NMatS0=      1 NMatT0=    0 NMatD0=    1 NMtDS0=    0 NMtDT0=    0
 Symmetry not used in FoFCou.
 Inv3:  Mode=1 IEnd=    24111675.
 Iteration    1 A*A^-1 deviation from unit magnitude is 3.11D-15 for    369.
 Iteration    1 A*A^-1 deviation from orthogonality  is 2.16D-15 for   2680   2159.
 Iteration    1 A^-1*A deviation from unit magnitude is 3.11D-15 for   2680.
 Iteration    1 A^-1*A deviation from orthogonality  is 2.99D-15 for   1948   1009.
 E= -990.989010846165    
 DIIS: error= 2.14D-02 at cycle   1 NSaved=   1.
 NSaved= 1 IEnMin= 1 EnMin= -990.989010846165     IErMin= 1 ErrMin= 2.14D-02
 ErrMax= 2.14D-02  0.00D+00 EMaxC= 1.00D-01 BMatC= 4.33D-01 BMatP= 4.33D-01
 IDIUse=3 WtCom= 7.86D-01 WtEn= 2.14D-01
 Coeff-Com:  0.100D+01
 Coeff-En:   0.100D+01
 Coeff:      0.100D+01
 Gap=     0.085 Goal=   None    Shift=    0.000
 GapD=    0.085 DampG=0.500 DampE=0.500 DampFc=0.2500 IDamp=-1.
 Damping current iteration by 2.50D-01
 RMSDP=4.81D-02 MaxDP=4.23D+00              OVMax= 3.08D-01

 Cycle   2  Pass 1  IDiag  1:
 RMSU=  6.25D-03    CP:  8.91D-01
 E= -991.129853573711     Delta-E=       -0.140842727547 Rises=F Damp=T
 DIIS: error= 1.27D-02 at cycle   2 NSaved=   2.
 NSaved= 2 IEnMin= 2 EnMin= -991.129853573711     IErMin= 2 ErrMin= 1.27D-02
 ErrMax= 1.27D-02  0.00D+00 EMaxC= 1.00D-01 BMatC= 1.28D-01 BMatP= 4.33D-01
 IDIUse=3 WtCom= 8.73D-01 WtEn= 1.27D-01
 Coeff-Com: -0.862D+00 0.186D+01
 Coeff-En:   0.000D+00 0.100D+01
 Coeff:     -0.752D+00 0.175D+01
 Gap=     0.127 Goal=   None    Shift=    0.000
 RMSDP=3.03D-02 MaxDP=2.41D+00 DE=-1.41D-01 OVMax= 2.55D-01

 Cycle   3  Pass 1  IDiag  1:
 RMSU=  9.23D-03    CP:  5.85D-01  1.25D+00
 E= -991.360018423601     Delta-E=       -0.230164849890 Rises=F Damp=F
 DIIS: error= 6.89D-03 at cycle   3 NSaved=   3.
 NSaved= 3 IEnMin= 3 EnMin= -991.360018423601     IErMin= 3 ErrMin= 6.89D-03
 ErrMax= 6.89D-03  0.00D+00 EMaxC= 1.00D-01 BMatC= 3.37D-02 BMatP= 1.28D-01
 IDIUse=3 WtCom= 9.31D-01 WtEn= 6.89D-02
 Coeff-Com: -0.480D+00 0.920D+00 0.560D+00
 Coeff-En:   0.000D+00 0.000D+00 0.100D+01
 Coeff:     -0.447D+00 0.857D+00 0.590D+00
 Gap=     0.116 Goal=   None    Shift=    0.000
 RMSDP=5.51D-03 MaxDP=4.88D-01 DE=-2.30D-01 OVMax= 9.57D-02

 Cycle   4  Pass 1  IDiag  1:
 RMSU=  4.79D-03    CP:  5.60D-01  1.10D+00  8.99D-01
 E= -991.386592085575     Delta-E=       -0.026573661974 Rises=F Damp=F
 DIIS: error= 2.77D-03 at cycle   4 NSaved=   4.
 NSaved= 4 IEnMin= 4 EnMin= -991.386592085575     IErMin= 4 ErrMin= 2.77D-03
 ErrMax= 2.77D-03  0.00D+00 EMaxC= 1.00D-01 BMatC= 6.96D-03 BMatP= 3.37D-02
 IDIUse=3 WtCom= 9.72D-01 WtEn= 2.77D-02
 Coeff-Com: -0.979D-01 0.167D+00 0.329D+00 0.602D+00
 Coeff-En:   0.000D+00 0.000D+00 0.180D+00 0.820D+00
 Coeff:     -0.952D-01 0.162D+00 0.325D+00 0.608D+00
 Gap=     0.119 Goal=   None    Shift=    0.000
 RMSDP=1.87D-03 MaxDP=1.45D-01 DE=-2.66D-02 OVMax= 3.08D-02

 Cycle   5  Pass 1  IDiag  1:
 RMSU=  6.90D-04    CP:  5.64D-01  1.13D+00  9.41D-01  6.58D-01
 E= -991.392767432180     Delta-E=       -0.006175346605 Rises=F Damp=F
 DIIS: error= 1.02D-03 at cycle   5 NSaved=   5.
 NSaved= 5 IEnMin= 5 EnMin= -991.392767432180     IErMin= 5 ErrMin= 1.02D-03
 ErrMax= 1.02D-03  0.00D+00 EMaxC= 1.00D-01 BMatC= 4.78D-04 BMatP= 6.96D-03
 IDIUse=3 WtCom= 9.90D-01 WtEn= 1.02D-02
 Coeff-Com: -0.271D-01 0.401D-01 0.144D+00 0.333D+00 0.510D+00
 Coeff-En:   0.000D+00 0.000D+00 0.000D+00 0.000D+00 0.100D+01
 Coeff:     -0.268D-01 0.397D-01 0.143D+00 0.329D+00 0.515D+00
 Gap=     0.119 Goal=   None    Shift=    0.000
 RMSDP=6.15D-04 MaxDP=6.92D-02 DE=-6.18D-03 OVMax= 6.86D-03

 Cycle   6  Pass 1  IDiag  1:
 RMSU=  3.49D-04    CP:  5.59D-01  1.13D+00  9.36D-01  6.76D-01  8.16D-01
 E= -991.393150703105     Delta-E=       -0.000383270926 Rises=F Damp=F
 DIIS: error= 2.10D-04 at cycle   6 NSaved=   6.
 NSaved= 6 IEnMin= 6 EnMin= -991.393150703105     IErMin= 6 ErrMin= 2.10D-04
 ErrMax= 2.10D-04  0.00D+00 EMaxC= 1.00D-01 BMatC= 2.71D-05 BMatP= 4.78D-04
 IDIUse=3 WtCom= 9.98D-01 WtEn= 2.10D-03
 Coeff-Com: -0.647D-02 0.800D-02 0.400D-01 0.104D+00 0.251D+00 0.603D+00
 Coeff-En:   0.000D+00 0.000D+00 0.000D+00 0.000D+00 0.000D+00 0.100D+01
 Coeff:     -0.646D-02 0.798D-02 0.400D-01 0.104D+00 0.251D+00 0.604D+00
 Gap=     0.119 Goal=   None    Shift=    0.000
 RMSDP=1.03D-04 MaxDP=7.21D-03 DE=-3.83D-04 OVMax= 1.67D-03

 Cycle   7  Pass 1  IDiag  1:
 RMSU=  6.89D-05    CP:  5.59D-01  1.13D+00  9.38D-01  6.80D-01  8.29D-01
                    CP:  8.30D-01
 E= -991.393173345911     Delta-E=       -0.000022642806 Rises=F Damp=F
 DIIS: error= 8.27D-05 at cycle   7 NSaved=   7.
 NSaved= 7 IEnMin= 7 EnMin= -991.393173345911     IErMin= 7 ErrMin= 8.27D-05
 ErrMax= 8.27D-05  0.00D+00 EMaxC= 1.00D-01 BMatC= 3.62D-06 BMatP= 2.71D-05
 IDIUse=1 WtCom= 1.00D+00 WtEn= 0.00D+00
 Coeff-Com: -0.210D-02 0.212D-02 0.119D-01 0.338D-01 0.107D+00 0.352D+00
 Coeff-Com:  0.495D+00
 Coeff:     -0.210D-02 0.212D-02 0.119D-01 0.338D-01 0.107D+00 0.352D+00
 Coeff:      0.495D+00
 Gap=     0.119 Goal=   None    Shift=    0.000
 RMSDP=3.52D-05 MaxDP=2.13D-03 DE=-2.26D-05 OVMax= 5.82D-04

 Cycle   8  Pass 1  IDiag  1:
 RMSU=  2.41D-05    CP:  5.59D-01  1.13D+00  9.38D-01  6.84D-01  8.21D-01
                    CP:  8.34D-01  9.74D-01
 E= -991.393176610915     Delta-E=       -0.000003265004 Rises=F Damp=F
 DIIS: error= 1.41D-05 at cycle   8 NSaved=   8.
 NSaved= 8 IEnMin= 8 EnMin= -991.393176610915     IErMin= 8 ErrMin= 1.41D-05
 ErrMax= 1.41D-05  0.00D+00 EMaxC= 1.00D-01 BMatC= 1.34D-07 BMatP= 3.62D-06
 IDIUse=1 WtCom= 1.00D+00 WtEn= 0.00D+00
 Coeff-Com: -0.138D-03 0.166D-04-0.748D-03-0.971D-03 0.103D-01 0.654D-01
 Coeff-Com:  0.174D+00 0.752D+00
 Coeff:     -0.138D-03 0.166D-04-0.748D-03-0.971D-03 0.103D-01 0.654D-01
 Coeff:      0.174D+00 0.752D+00
 Gap=     0.119 Goal=   None    Shift=    0.000
 RMSDP=1.18D-05 MaxDP=8.65D-04 DE=-3.27D-06 OVMax= 1.70D-04

 Cycle   9  Pass 1  IDiag  1:
 RMSU=  7.04D-06    CP:  5.59D-01  1.13D+00  9.38D-01  6.83D-01  8.28D-01
                    CP:  8.51D-01  1.01D+00  9.60D-01
 E= -991.393176727029     Delta-E=       -0.000000116114 Rises=F Damp=F
 DIIS: error= 7.01D-06 at cycle   9 NSaved=   9.
 NSaved= 9 IEnMin= 9 EnMin= -991.393176727029     IErMin= 9 ErrMin= 7.01D-06
 ErrMax= 7.01D-06  0.00D+00 EMaxC= 1.00D-01 BMatC= 4.49D-08 BMatP= 1.34D-07
 IDIUse=1 WtCom= 1.00D+00 WtEn= 0.00D+00
 Coeff-Com:  0.106D-03-0.152D-03-0.166D-02-0.430D-02-0.593D-02-0.278D-02
 Coeff-Com:  0.302D-01 0.413D+00 0.572D+00
 Coeff:      0.106D-03-0.152D-03-0.166D-02-0.430D-02-0.593D-02-0.278D-02
 Coeff:      0.302D-01 0.413D+00 0.572D+00
 Gap=     0.119 Goal=   None    Shift=    0.000
 RMSDP=4.11D-06 MaxDP=2.94D-04 DE=-1.16D-07 OVMax= 7.33D-05

 Cycle  10  Pass 1  IDiag  1:
 RMSU=  2.77D-06    CP:  5.59D-01  1.13D+00  9.38D-01  6.83D-01  8.29D-01
                    CP:  8.52D-01  1.02D+00  1.01D+00  9.47D-01
 E= -991.393176770198     Delta-E=       -0.000000043169 Rises=F Damp=F
 DIIS: error= 1.28D-06 at cycle  10 NSaved=  10.
 NSaved=10 IEnMin=10 EnMin= -991.393176770198     IErMin=10 ErrMin= 1.28D-06
 ErrMax= 1.28D-06  0.00D+00 EMaxC= 1.00D-01 BMatC= 1.95D-09 BMatP= 4.49D-08
 IDIUse=1 WtCom= 1.00D+00 WtEn= 0.00D+00
 Coeff-Com:  0.530D-04-0.649D-04-0.614D-03-0.173D-02-0.297D-02-0.503D-02
 Coeff-Com: -0.173D-02 0.114D+00 0.240D+00 0.659D+00
 Coeff:      0.530D-04-0.649D-04-0.614D-03-0.173D-02-0.297D-02-0.503D-02
 Coeff:     -0.173D-02 0.114D+00 0.240D+00 0.659D+00
 Gap=     0.119 Goal=   None    Shift=    0.000
 RMSDP=1.14D-06 MaxDP=8.83D-05 DE=-4.32D-08 OVMax= 2.22D-05

 Cycle  11  Pass 1  IDiag  1:
 RMSU=  7.68D-07    CP:  5.59D-01  1.13D+00  9.38D-01  6.83D-01  8.29D-01
                    CP:  8.53D-01  1.02D+00  1.02D+00  9.69D-01  9.21D-01
 E= -991.393176771917     Delta-E=       -0.000000001719 Rises=F Damp=F
 DIIS: error= 6.91D-07 at cycle  11 NSaved=  11.
 NSaved=11 IEnMin=11 EnMin= -991.393176771917     IErMin=11 ErrMin= 6.91D-07
 ErrMax= 6.91D-07  0.00D+00 EMaxC= 1.00D-01 BMatC= 5.72D-10 BMatP= 1.95D-09
 IDIUse=1 WtCom= 1.00D+00 WtEn= 0.00D+00
 Coeff-Com:  0.161D-04-0.152D-04-0.106D-03-0.381D-03-0.893D-03-0.285D-02
 Coeff-Com: -0.753D-02-0.253D-02 0.524D-01 0.397D+00 0.565D+00
 Coeff:      0.161D-04-0.152D-04-0.106D-03-0.381D-03-0.893D-03-0.285D-02
 Coeff:     -0.753D-02-0.253D-02 0.524D-01 0.397D+00 0.565D+00
 Gap=     0.119 Goal=   None    Shift=    0.000
 RMSDP=7.21D-07 MaxDP=7.42D-05 DE=-1.72D-09 OVMax= 8.05D-06

 Cycle  12  Pass 1  IDiag  1:
 RMSU=  2.83D-07    CP:  5.59D-01  1.13D+00  9.38D-01  6.83D-01  8.29D-01
                    CP:  8.52D-01  1.03D+00  1.03D+00  9.82D-01  1.01D+00
                    CP:  9.62D-01
 E= -991.393176772412     Delta-E=       -0.000000000495 Rises=F Damp=F
 DIIS: error= 2.07D-07 at cycle  12 NSaved=  12.
 NSaved=12 IEnMin=12 EnMin= -991.393176772412     IErMin=12 ErrMin= 2.07D-07
 ErrMax= 2.07D-07  0.00D+00 EMaxC= 1.00D-01 BMatC= 3.28D-11 BMatP= 5.72D-10
 IDIUse=1 WtCom= 1.00D+00 WtEn= 0.00D+00
 Coeff-Com:  0.145D-05 0.292D-06 0.170D-04 0.243D-05-0.758D-04-0.669D-03
 Coeff-Com: -0.333D-02-0.122D-01 0.600D-03 0.108D+00 0.250D+00 0.657D+00
 Coeff:      0.145D-05 0.292D-06 0.170D-04 0.243D-05-0.758D-04-0.669D-03
 Coeff:     -0.333D-02-0.122D-01 0.600D-03 0.108D+00 0.250D+00 0.657D+00
 Gap=     0.119 Goal=   None    Shift=    0.000
 RMSDP=1.94D-07 MaxDP=1.73D-05 DE=-4.95D-10 OVMax= 3.31D-06

 Cycle  13  Pass 1  IDiag  1:
 RMSU=  8.94D-08    CP:  5.59D-01  1.13D+00  9.38D-01  6.83D-01  8.29D-01
                    CP:  8.52D-01  1.02D+00  1.03D+00  9.90D-01  1.02D+00
                    CP:  9.89D-01  9.04D-01
 E= -991.393176772469     Delta-E=       -0.000000000057 Rises=F Damp=F
 DIIS: error= 8.27D-08 at cycle  13 NSaved=  13.
 NSaved=13 IEnMin=13 EnMin= -991.393176772469     IErMin=13 ErrMin= 8.27D-08
 ErrMax= 8.27D-08  0.00D+00 EMaxC= 1.00D-01 BMatC= 8.56D-12 BMatP= 3.28D-11
 IDIUse=1 WtCom= 1.00D+00 WtEn= 0.00D+00
 Coeff-Com: -0.128D-05 0.214D-05 0.264D-04 0.561D-04 0.865D-04 0.302D-05
 Coeff-Com: -0.103D-02-0.694D-02-0.604D-02 0.127D-01 0.731D-01 0.392D+00
 Coeff-Com:  0.536D+00
 Coeff:     -0.128D-05 0.214D-05 0.264D-04 0.561D-04 0.865D-04 0.302D-05
 Coeff:     -0.103D-02-0.694D-02-0.604D-02 0.127D-01 0.731D-01 0.392D+00
 Coeff:      0.536D+00
 Gap=     0.119 Goal=   None    Shift=    0.000
 RMSDP=5.60D-08 MaxDP=4.18D-06 DE=-5.66D-11 OVMax= 6.63D-07

 Cycle  14  Pass 1  IDiag  1:
 RMSU=  3.15D-08    CP:  5.59D-01  1.13D+00  9.38D-01  6.83D-01  8.29D-01
                    CP:  8.52D-01  1.02D+00  1.03D+00  9.90D-01  1.03D+00
                    CP:  1.01D+00  9.69D-01  7.36D-01
 E= -991.393176772470     Delta-E=       -0.000000000001 Rises=F Damp=F
 DIIS: error= 2.26D-08 at cycle  14 NSaved=  14.
 NSaved=14 IEnMin=14 EnMin= -991.393176772470     IErMin=14 ErrMin= 2.26D-08
 ErrMax= 2.26D-08  0.00D+00 EMaxC= 1.00D-01 BMatC= 4.95D-13 BMatP= 8.56D-12
 IDIUse=1 WtCom= 1.00D+00 WtEn= 0.00D+00
 Coeff-Com: -0.546D-06 0.731D-06 0.104D-04 0.244D-04 0.453D-04 0.559D-04
 Coeff-Com: -0.202D-03-0.217D-02-0.286D-02-0.451D-02 0.100D-01 0.130D+00
 Coeff-Com:  0.253D+00 0.616D+00
 Coeff:     -0.546D-06 0.731D-06 0.104D-04 0.244D-04 0.453D-04 0.559D-04
 Coeff:     -0.202D-03-0.217D-02-0.286D-02-0.451D-02 0.100D-01 0.130D+00
 Coeff:      0.253D+00 0.616D+00
 Gap=     0.119 Goal=   None    Shift=    0.000
 RMSDP=1.56D-08 MaxDP=7.28D-07 DE=-9.09D-13 OVMax= 3.38D-07

 Cycle  15  Pass 1  IDiag  1:
 RMSU=  1.12D-08    CP:  5.59D-01  1.13D+00  9.38D-01  6.83D-01  8.29D-01
                    CP:  8.52D-01  1.02D+00  1.03D+00  9.89D-01  1.03D+00
                    CP:  1.01D+00  9.81D-01  7.77D-01  1.02D+00
 E= -991.393176772467     Delta-E=        0.000000000003 Rises=F Damp=F
 DIIS: error= 8.00D-09 at cycle  15 NSaved=  15.
 NSaved=15 IEnMin=14 EnMin= -991.393176772470     IErMin=15 ErrMin= 8.00D-09
 ErrMax= 8.00D-09  0.00D+00 EMaxC= 1.00D-01 BMatC= 7.89D-14 BMatP= 4.95D-13
 IDIUse=1 WtCom= 1.00D+00 WtEn= 0.00D+00
 Coeff-Com: -0.830D-07 0.503D-07 0.145D-05 0.396D-05 0.108D-04 0.300D-04
 Coeff-Com:  0.526D-04-0.298D-04-0.467D-03-0.400D-02-0.633D-02 0.596D-02
 Coeff-Com:  0.356D-01 0.315D+00 0.654D+00
 Coeff:     -0.830D-07 0.503D-07 0.145D-05 0.396D-05 0.108D-04 0.300D-04
 Coeff:      0.526D-04-0.298D-04-0.467D-03-0.400D-02-0.633D-02 0.596D-02
 Coeff:      0.356D-01 0.315D+00 0.654D+00
 Gap=     0.119 Goal=   None    Shift=    0.000
 RMSDP=5.31D-09 MaxDP=3.02D-07 DE= 2.50D-12 OVMax= 1.52D-07

 Error on total polarization charges =  0.01988
 SCF Done:  E(RPBE1PBE) =  -991.393176772     A.U. after   15 cycles
            NFock= 15  Conv=0.53D-08     -V/T= 2.0083
 KE= 9.831902496850D+02 PE=-5.875535285549D+03 EE= 2.115776100271D+03
 Leave Link  502 at Tue Feb 11 11:43:11 2025, MaxMem=  8375500800 cpu:            1885.0 elap:              48.6
 (Enter /gpfslocalsup/prod/g16/rev-C01/g16/l601.exe)
 Copying SCF densities to generalized density rwf, IOpCl= 0 IROHF=0.

 **********************************************************************

            Population analysis using the SCF Density.

 **********************************************************************

 Orbital symmetries:
       Occupied  (A) (A) (A) (A) (A) (A) (A) (A) (A) (A) (A) (A)
                 (A) (A) (A) (A) (A) (A) (A) (A) (A) (A) (A) (A)
                 (A) (A) (A) (A) (A) (A) (A) (A) (A) (A) (A) (A)
                 (A) (A) (A) (A) (A) (A) (A) (A) (A) (A) (A) (A)
                 (A) (A) (A) (A) (A) (A) (A) (A) (A) (A) (A) (A)
                 (A) (A) (A) (A) (A) (A) (A) (A) (A) (A) (A) (A)
                 (A) (A) (A) (A) (A) (A) (A)
       Virtual   (A) (A) (A) (A) (A) (A) (A) (A) (A) (A) (A) (A)
                 (A) (A) (A) (A) (A) (A) (A) (A) (A) (A) (A) (A)
                 (A) (A) (A) (A) (A) (A) (A) (A) (A) (A) (A) (A)
                 (A) (A) (A) (A) (A) (A) (A) (A) (A) (A) (A) (A)
                 (A) (A) (A) (A) (A) (A) (A) (A) (A) (A) (A) (A)
                 (A) (A) (A) (A) (A) (A) (A) (A) (A) (A) (A) (A)
                 (A) (A) (A) (A) (A) (A) (A) (A) (A) (A) (A) (A)
                 (A) (A) (A) (A) (A) (A) (A) (A) (A) (A) (A) (A)
                 (A) (A) (A) (A) (A) (A) (A) (A) (A) (A) (A) (A)
                 (A) (A) (A) (A) (A) (A) (A) (A) (A) (A) (A) (A)
                 (A) (A) (A) (A) (A) (A) (A) (A) (A) (A) (A) (A)
                 (A) (A) (A) (A) (A) (A) (A) (A) (A) (A) (A) (A)
                 (A) (A) (A) (A) (A) (A) (A) (A) (A) (A) (A) (A)
                 (A) (A) (A) (A) (A) (A) (A) (A) (A) (A) (A) (A)
                 (A) (A) (A) (A) (A) (A) (A) (A) (A) (A) (A) (A)
                 (A) (A) (A) (A) (A) (A) (A) (A) (A) (A) (A) (A)
                 (A) (A) (A) (A) (A) (A) (A) (A) (A) (A) (A) (A)
                 (A) (A) (A) (A) (A) (A) (A) (A) (A) (A) (A) (A)
                 (A) (A) (A) (A) (A) (A) (A) (A) (A) (A) (A) (A)
                 (A) (A) (A) (A) (A) (A) (A) (A) (A) (A) (A) (A)
                 (A) (A) (A) (A) (A) (A) (A) (A) (A) (A) (A) (A)
                 (A) (A) (A) (A) (A) (A) (A) (A) (A) (A) (A) (A)
                 (A) (A) (A) (A) (A) (A) (A) (A) (A) (A) (A) (A)
                 (A) (A) (A) (A) (A) (A) (A) (A) (A) (A) (A) (A)
                 (A) (A) (A) (A) (A) (A) (A) (A) (A) (A) (A) (A)
                 (A) (A) (A) (A) (A) (A) (A) (A) (A) (A) (A) (A)
                 (A) (A) (A) (A) (A) (A) (A) (A) (A) (A) (A) (A)
                 (A) (A) (A) (A) (A) (A) (A) (A) (A) (A) (A) (A)
                 (A) (A) (A) (A) (A) (A) (A) (A) (A) (A) (A) (A)
                 (A) (A) (A) (A) (A) (A) (A) (A) (A) (A) (A) (A)
                 (A) (A) (A) (A) (A) (A) (A) (A) (A) (A) (A) (A)
                 (A) (A) (A) (A) (A) (A) (A) (A) (A) (A) (A) (A)
                 (A) (A) (A) (A) (A) (A) (A) (A) (A) (A) (A) (A)
                 (A) (A) (A) (A) (A) (A) (A) (A) (A) (A) (A) (A)
                 (A) (A) (A) (A) (A) (A) (A) (A) (A) (A) (A)
 The electronic state is 1-A.
 Alpha  occ. eigenvalues --  -19.27582 -19.22122 -14.47457 -14.35739 -10.36178
 Alpha  occ. eigenvalues --  -10.31332 -10.30935 -10.28262 -10.28231 -10.27234
 Alpha  occ. eigenvalues --  -10.27074 -10.26721 -10.26262 -10.26125 -10.26105
 Alpha  occ. eigenvalues --  -10.26037 -10.25897 -10.25577 -10.25353 -10.25230
 Alpha  occ. eigenvalues --  -10.24356 -10.23793 -10.23701  -1.14623  -1.05019
 Alpha  occ. eigenvalues --   -1.03506  -0.93363  -0.92194  -0.89909  -0.86519
 Alpha  occ. eigenvalues --   -0.84426  -0.81539  -0.79088  -0.76608  -0.75571
 Alpha  occ. eigenvalues --   -0.74901  -0.69786  -0.67611  -0.66098  -0.64971
 Alpha  occ. eigenvalues --   -0.63664  -0.61374  -0.60325  -0.56130  -0.55895
 Alpha  occ. eigenvalues --   -0.55023  -0.51874  -0.50853  -0.49996  -0.49776
 Alpha  occ. eigenvalues --   -0.49212  -0.48035  -0.47765  -0.47361  -0.47057
 Alpha  occ. eigenvalues --   -0.45949  -0.44790  -0.44612  -0.43362  -0.42879
 Alpha  occ. eigenvalues --   -0.41749  -0.39975  -0.39610  -0.38897  -0.38784
 Alpha  occ. eigenvalues --   -0.38352  -0.37273  -0.37125  -0.36782  -0.36327
 Alpha  occ. eigenvalues --   -0.34238  -0.32820  -0.31452  -0.31301  -0.30022
 Alpha  occ. eigenvalues --   -0.26361  -0.26067  -0.25353  -0.19867
 Alpha virt. eigenvalues --   -0.07946  -0.04581  -0.02447  -0.00636   0.00993
 Alpha virt. eigenvalues --    0.01748   0.02093   0.02379   0.02989   0.03475
 Alpha virt. eigenvalues --    0.03779   0.04017   0.04572   0.04897   0.05122
 Alpha virt. eigenvalues --    0.05679   0.05962   0.06688   0.06917   0.07022
 Alpha virt. eigenvalues --    0.07515   0.08252   0.08491   0.09108   0.09402
 Alpha virt. eigenvalues --    0.09937   0.10303   0.10629   0.10934   0.11241
 Alpha virt. eigenvalues --    0.11701   0.12138   0.12215   0.13222   0.14022
 Alpha virt. eigenvalues --    0.14344   0.14882   0.15100   0.15185   0.15394
 Alpha virt. eigenvalues --    0.15669   0.15997   0.16859   0.16948   0.17364
 Alpha virt. eigenvalues --    0.17404   0.17992   0.18081   0.18222   0.19216
 Alpha virt. eigenvalues --    0.19520   0.19658   0.19716   0.19859   0.20283
 Alpha virt. eigenvalues --    0.20708   0.20775   0.21018   0.21273   0.21469
 Alpha virt. eigenvalues --    0.21601   0.22017   0.22315   0.22381   0.23226
 Alpha virt. eigenvalues --    0.23447   0.23714   0.23812   0.24306   0.24754
 Alpha virt. eigenvalues --    0.25050   0.25342   0.25497   0.25837   0.26044
 Alpha virt. eigenvalues --    0.26542   0.26662   0.26744   0.26918   0.27758
 Alpha virt. eigenvalues --    0.27926   0.28197   0.28660   0.28791   0.29236
 Alpha virt. eigenvalues --    0.29541   0.29834   0.29947   0.30417   0.30886
 Alpha virt. eigenvalues --    0.31400   0.31488   0.31975   0.32297   0.32417
 Alpha virt. eigenvalues --    0.32845   0.33413   0.33845   0.34118   0.34215
 Alpha virt. eigenvalues --    0.34883   0.35121   0.35731   0.36030   0.36740
 Alpha virt. eigenvalues --    0.36863   0.37581   0.38075   0.38616   0.39132
 Alpha virt. eigenvalues --    0.40200   0.41093   0.41272   0.42251   0.42798
 Alpha virt. eigenvalues --    0.43196   0.43682   0.44046   0.46559   0.47394
 Alpha virt. eigenvalues --    0.47940   0.48415   0.50471   0.51332   0.51771
 Alpha virt. eigenvalues --    0.52602   0.53240   0.56471   0.58975   0.61932
 Alpha virt. eigenvalues --    0.63459   0.65722   0.66171   0.66221   0.68749
 Alpha virt. eigenvalues --    0.69169   0.70209   0.70885   0.71833   0.71920
 Alpha virt. eigenvalues --    0.71996   0.73050   0.73380   0.74726   0.75001
 Alpha virt. eigenvalues --    0.75349   0.75691   0.76253   0.76477   0.76727
 Alpha virt. eigenvalues --    0.76865   0.76950   0.77370   0.78510   0.78953
 Alpha virt. eigenvalues --    0.79048   0.79240   0.80023   0.81232   0.82083
 Alpha virt. eigenvalues --    0.83321   0.83938   0.84678   0.85820   0.86400
 Alpha virt. eigenvalues --    0.86993   0.87950   0.89228   0.90488   0.91450
 Alpha virt. eigenvalues --    0.91733   0.92517   0.93571   0.94984   0.95619
 Alpha virt. eigenvalues --    0.96391   0.96656   0.99037   1.00014   1.00466
 Alpha virt. eigenvalues --    1.01338   1.01354   1.01980   1.03187   1.03408
 Alpha virt. eigenvalues --    1.05669   1.06564   1.07046   1.07819   1.09416
 Alpha virt. eigenvalues --    1.11480   1.12732   1.13738   1.14407   1.15933
 Alpha virt. eigenvalues --    1.16617   1.17502   1.18520   1.18842   1.20309
 Alpha virt. eigenvalues --    1.20796   1.20976   1.21947   1.22165   1.23634
 Alpha virt. eigenvalues --    1.23800   1.23845   1.24630   1.24910   1.25654
 Alpha virt. eigenvalues --    1.26366   1.27362   1.27665   1.28421   1.30283
 Alpha virt. eigenvalues --    1.30619   1.31119   1.32555   1.32859   1.33281
 Alpha virt. eigenvalues --    1.33382   1.34662   1.35250   1.36543   1.37371
 Alpha virt. eigenvalues --    1.37914   1.38045   1.38238   1.39421   1.39882
 Alpha virt. eigenvalues --    1.40666   1.41429   1.42362   1.43217   1.45805
 Alpha virt. eigenvalues --    1.48015   1.50294   1.50837   1.52043   1.54985
 Alpha virt. eigenvalues --    1.58549   1.59040   1.60697   1.60763   1.61576
 Alpha virt. eigenvalues --    1.64116   1.65667   1.66670   1.69078   1.70686
 Alpha virt. eigenvalues --    1.72171   1.72437   1.73296   1.74443   1.75925
 Alpha virt. eigenvalues --    1.76277   1.77760   1.80231   1.80693   1.81698
 Alpha virt. eigenvalues --    1.81975   1.82176   1.82343   1.83830   1.84969
 Alpha virt. eigenvalues --    1.86342   1.87124   1.88756   1.90027   1.91923
 Alpha virt. eigenvalues --    1.92809   1.93334   1.93955   1.94959   1.95663
 Alpha virt. eigenvalues --    1.96883   1.97447   1.98139   1.98715   1.99302
 Alpha virt. eigenvalues --    1.99743   2.01913   2.02203   2.04113   2.04397
 Alpha virt. eigenvalues --    2.05489   2.06875   2.06964   2.08521   2.09408
 Alpha virt. eigenvalues --    2.10545   2.12024   2.12778   2.14099   2.16259
 Alpha virt. eigenvalues --    2.20530   2.21245   2.21734   2.22722   2.23339
 Alpha virt. eigenvalues --    2.24126   2.25973   2.26899   2.27716   2.29361
 Alpha virt. eigenvalues --    2.30654   2.30804   2.32371   2.34140   2.34900
 Alpha virt. eigenvalues --    2.35229   2.36803   2.39197   2.39384   2.39620
 Alpha virt. eigenvalues --    2.40290   2.41112   2.42763   2.42850   2.44045
 Alpha virt. eigenvalues --    2.46117   2.46919   2.48754   2.49854   2.51204
 Alpha virt. eigenvalues --    2.51620   2.52870   2.53213   2.54140   2.56468
 Alpha virt. eigenvalues --    2.56738   2.56872   2.57870   2.58460   2.59578
 Alpha virt. eigenvalues --    2.60187   2.60612   2.62592   2.63620   2.63848
 Alpha virt. eigenvalues --    2.65090   2.65768   2.66157   2.66533   2.68361
 Alpha virt. eigenvalues --    2.70923   2.71666   2.72695   2.72917   2.74209
 Alpha virt. eigenvalues --    2.74851   2.77855   2.78077   2.80200   2.80624
 Alpha virt. eigenvalues --    2.81115   2.82027   2.82900   2.85658   2.87034
 Alpha virt. eigenvalues --    2.88034   2.89653   2.91800   2.94252   2.96121
 Alpha virt. eigenvalues --    2.98610   3.00514   3.02568   3.05425   3.08233
 Alpha virt. eigenvalues --    3.09219   3.14431   3.16586   3.17307   3.20185
 Alpha virt. eigenvalues --    3.20948   3.26150   3.27240   3.30288   3.31828
 Alpha virt. eigenvalues --    3.32729   3.34494   3.37681   3.38572   3.40687
 Alpha virt. eigenvalues --    3.43223   3.45235   3.45630   3.49068   3.50921
 Alpha virt. eigenvalues --    3.56783   3.57124   3.58955   3.69889   3.79013
 Alpha virt. eigenvalues --    3.84539   4.26872   4.31815   4.33793   4.35166
 Alpha virt. eigenvalues --    4.36964   4.37960   4.41174   4.44917   4.46653
 Alpha virt. eigenvalues --    4.48969   4.49150   4.51408   4.56102   4.57131
 Alpha virt. eigenvalues --    4.58926   4.60739   4.67922   4.75465   4.78594
 Alpha virt. eigenvalues --    4.87833   4.89682   4.94371   4.99335
          Condensed to atoms (all electrons):
               1          2          3          4          5          6
     1  N    7.493620   0.195848   0.826599   0.270399  -0.000604  -0.017739
     2  C    0.195848  17.339273   0.529842  -1.835775   0.011409  -0.596005
     3  C    0.826599   0.529842  16.969607   0.884726   0.096871  -0.743305
     4  C    0.270399  -1.835775   0.884726  15.769134   0.189140  -1.042932
     5  H   -0.000604   0.011409   0.096871   0.189140   0.497490   0.031656
     6  C   -0.017739  -0.596005  -0.743305  -1.042932   0.031656   9.940217
     7  H    0.000323  -0.003672   0.000408   0.028731  -0.002825   0.305631
     8  C   -0.037146  -1.560065  -0.769586  -0.480202   0.057025   1.151531
     9  C    0.069740  -0.020680  -0.734803   0.312347   0.015480  -1.177434
    10  C   -1.044441  -1.287571  -5.487277  -4.066461   0.032015  -1.572005
    11  C   -0.025471   1.963408   0.495166   0.074473  -0.000080  -0.191182
    12  C   -0.102306   0.049896  -0.138396  -0.057740  -0.000012   0.054559
    13  C   -0.025045  -0.567485  -0.068247  -0.228885   0.000031   0.186006
    14  N   -0.044781   0.184663   0.146591   0.061943   0.000019  -0.004986
    15  H   -0.000001   0.000055   0.000001  -0.000000  -0.000000   0.000002
    16  C   -0.131756  -3.245168  -2.488467  -1.581652   0.000772  -0.567388
    17  C   -0.009485   0.180950   0.020188   0.006721  -0.000004  -0.058263
    18  C   -0.023392  -2.741509  -0.807988  -1.153898   0.006733   1.071838
    19  C    0.006960  -0.201496  -0.034871  -0.004383  -0.000000   0.006304
    20  C    0.067541  -1.849221  -0.240811  -0.133166  -0.000088   0.155747
    21  H    0.097207  -0.010920   0.020549   0.006890   0.000000  -0.001105
    22  H    0.242208   0.091989  -0.310243  -0.083056  -0.000008  -0.002057
    23  C   -0.008544   0.123139   0.016761   0.006161  -0.000000  -0.022196
    24  C    0.011701  -0.651141  -0.059915   0.038066   0.000030   0.007765
    25  C   -0.000454   0.084684   0.002678  -0.009433   0.000001   0.013727
    26  H    0.000000  -0.000032  -0.000001  -0.000001   0.000000   0.000044
    27  H    0.000000  -0.000023  -0.000001  -0.000002   0.000000   0.000041
    28  H    0.000003  -0.001209  -0.000147   0.000132   0.000000   0.000440
    29  H    0.000003  -0.001237  -0.000170   0.000134   0.000000   0.000445
    30  H    0.000149   0.003682   0.006061  -0.000755   0.000001  -0.007600
    31  H    0.000109   0.012218   0.003199  -0.011878   0.000002  -0.016669
    32  H   -0.000474   0.001486   0.000293   0.000048   0.000000   0.000033
    33  H    0.000003  -0.000036   0.000001   0.000000  -0.000000  -0.000001
    34  C    0.008582  -0.568528  -0.924286  -0.153088  -0.118917  -0.618939
    35  O   -0.028585  -0.031367  -0.352372   0.015051  -0.000480   0.050624
    36  O   -0.004407  -0.036814  -0.111632   0.107425  -0.005720   0.151742
    37  H   -0.000181   0.052868  -0.004115  -0.058225   0.000243  -0.015933
[...]
    27  H   -0.000000  -0.000233  -0.001601   0.000020   0.006650   0.005604
    28  H    0.000000  -0.010770   0.015360  -0.003837  -0.009175  -0.003760
    29  H    0.000000  -0.010828   0.015423  -0.003827  -0.009225  -0.003756
    30  H    0.000453  -0.097579   0.439673   0.036017  -0.007161  -0.001208
    31  H    0.000453  -0.098680   0.440468   0.036165  -0.007153  -0.001204
    32  H   -0.000000  -0.000834   0.000692  -0.005041   0.082033   0.211256
    33  H    0.000000  -0.000014   0.000065   0.000095  -0.010721  -0.012040
    34  C    0.005400  -0.318199  -0.250468  -0.593101   0.005325  -0.001504
    35  O    0.000022   0.014067  -0.002699   0.119782  -0.001126   0.000469
    36  O    0.000077   0.047660   0.002696  -0.011757  -0.000006  -0.000038
    37  H   -0.000000  -0.003425  -0.000236   0.004863  -0.000001  -0.000001
              13         14         15         16         17         18
     1  N   -0.023173  -0.039593  -0.000001  -0.113948  -0.009184  -0.023777
     2  C   -0.254474   0.175924   0.000054  -3.125154   0.175529  -2.325857
     3  C    0.003849   0.133877   0.000001  -2.121025   0.014680  -0.679469
     4  C   -0.212630   0.053185  -0.000000  -1.365862   0.006358  -1.141838
     5  H    0.000066   0.000019  -0.000000   0.001885  -0.000003   0.007155
     6  C    0.167178  -0.006892   0.000002  -0.550395  -0.058465   1.071421
     7  H   -0.000319  -0.000064   0.000000   0.000922   0.000067  -0.029090
     8  C    0.344207  -0.128645  -0.000010  -1.594253   0.096625   1.037089
     9  C   -0.867784   0.048474   0.000118   1.402540  -0.235707  -0.348797
    10  C   -0.350210  -0.215072  -0.000062   4.361296   0.083756  -0.502457
    11  C    0.286077  -0.127168   0.055376  -0.085280   0.757658  -1.197540
    12  C   -1.631136  -0.222664  -0.001896   0.276950   1.007799  -0.786111
    13  C    8.842227   0.010317  -0.016469  -0.863144  -0.514300   0.431163
    14  N    0.010317   7.489237   0.000336  -0.147391   0.008518  -0.203785
    15  H   -0.016469   0.000336   0.490816   0.001043   0.030407   0.002121
    16  C   -0.863144  -0.147391   0.001043  11.788179  -0.011173  -0.331959
    17  C   -0.514300   0.008518   0.030407  -0.011173   7.707062  -0.397450
    18  C    0.431163  -0.203785   0.002121  -0.331959  -0.397450   9.178260
    19  C   -0.354355   0.041270   0.017466  -0.036205  -0.294256   0.224700
    20  C    0.073821   0.012455   0.010377  -0.346516  -1.026685   1.999707
    21  H    0.005061   0.244194  -0.000000   0.018541  -0.003930  -0.001342
    22  H    0.003193   0.008144  -0.000000   0.053796  -0.000112   0.010838
    23  C    1.060319  -0.083462   0.234741   0.160402  -0.784426  -0.367850
    24  C    0.166351   0.062275  -0.005995  -1.912544   0.481826   0.462799
    25  C   -0.566447   0.013188  -0.004867   0.369599  -0.835779  -0.074054
    26  H   -0.003185   0.000335   0.000461   0.001891  -0.103255  -0.003155
    27  H   -0.003165   0.000334   0.000461   0.001889  -0.103246  -0.003161
    28  H   -0.007059   0.000289  -0.000001  -0.009584   0.022193   0.014185
    29  H   -0.007098   0.000289  -0.000001  -0.009437   0.022026   0.014219
    30  H   -0.002204  -0.000280   0.000000   0.039354  -0.001771  -0.063976
    31  H   -0.002202  -0.000279   0.000000   0.039706  -0.001812  -0.063710
    32  H    0.069470  -0.017765  -0.000117  -0.018640  -0.023191   0.011870
    33  H    0.045240  -0.000276  -0.003360   0.000539   0.019880   0.000199
    34  C    0.014631  -0.009703  -0.000000   0.069092   0.000567  -0.035818
    35  O    0.000993  -0.002195  -0.000000   0.043260   0.000004   0.007052
    36  O   -0.000328  -0.000266  -0.000000   0.000842  -0.000003  -0.000512
    37  H   -0.000005  -0.000003   0.000000   0.001445  -0.000000  -0.000080
              19         20         21         22         23         24
     1  N    0.006722   0.068762   0.101236   0.242489  -0.007576   0.012597
     2  C   -0.175236  -1.672966  -0.015013   0.090628   0.091577  -0.615255
     3  C   -0.028643  -0.203601   0.020845  -0.290726   0.011446  -0.051267
     4  C   -0.003224  -0.111300   0.006666  -0.079604   0.005888   0.049578
     5  H   -0.000000   0.000017   0.000000  -0.000007  -0.000000   0.000028
     6  C    0.006406   0.140842  -0.001054  -0.001867  -0.022054   0.005067
     7  H   -0.000001  -0.000841   0.000000  -0.000000   0.000003  -0.000267
     8  C    0.024121   1.257923  -0.029922  -0.002598   0.021439   0.456452
     9  C    0.038227  -1.354169   0.019498  -0.004264  -0.115098   0.292845
    10  C   -0.003599  -0.379184  -0.029725   0.218271   0.101798  -0.305197
    11  C   -0.121836   0.125982   0.025701  -0.002792  -0.971822  -0.633027
    12  C    0.192262  -1.145024  -0.059181   0.002975  -0.371367  -0.526739
    13  C   -0.354355   0.073821   0.005061   0.003193   1.060319   0.166351
    14  N    0.041270   0.012455   0.244194   0.008144  -0.083462   0.062275
    15  H    0.017466   0.010377  -0.000000  -0.000000   0.234741  -0.005995
    16  C   -0.036205  -0.346516   0.018541   0.053796   0.160402  -1.912544
    17  C   -0.294256  -1.026685  -0.003930  -0.000112  -0.784426   0.481826
    18  C    0.224700   1.999707  -0.001342   0.010838  -0.367850   0.462799
    19  C    5.582770   0.311222   0.004585   0.000379   0.304528   0.090036
    20  C    0.311222  10.508160   0.013378   0.002926  -1.504665  -2.241866
    21  H    0.004585   0.013378   0.305177  -0.001702  -0.006638   0.001007
    22  H    0.000379   0.002926  -0.001702   0.397915   0.000006   0.000149
    23  C    0.304528  -1.504665  -0.006638   0.000006   9.140744   0.321837
    24  C    0.090036  -2.241866   0.001007   0.000149   0.321837  10.836894
    25  C   -0.144431   0.675285   0.000151  -0.000019  -0.694051  -1.665288
    26  H   -0.003275   0.049124  -0.000000  -0.000000  -0.012298  -0.095298
    27  H   -0.003277   0.049074  -0.000000  -0.000000  -0.012242  -0.095249
    28  H    0.000936  -0.090375  -0.000000   0.000000  -0.000405   0.458924
    29  H    0.000937  -0.089966  -0.000000   0.000000  -0.000445   0.458357
    30  H   -0.000016  -0.013776   0.000003  -0.000000  -0.000363  -0.002992
    31  H   -0.000016  -0.013904   0.000003  -0.000000  -0.000367  -0.003216
    32  H    0.020509   0.015882   0.001975   0.000000  -0.022524  -0.001072
    33  H    0.259982   0.000498  -0.000003   0.000000   0.023900   0.001969
    34  C   -0.000035   0.021105  -0.000353   0.004035   0.000215   0.000128
    35  O    0.000059   0.001059  -0.000005   0.016318  -0.000006   0.000024
    36  O    0.000002   0.000290   0.000006   0.000128   0.000001   0.000021
    37  H    0.000000   0.000012  -0.000000   0.000036   0.000000   0.000000
              25         26         27         28         29         30
     1  N   -0.001085   0.000000   0.000000   0.000003   0.000003   0.000151
     2  C    0.092803  -0.000029  -0.000029  -0.001209  -0.001203   0.007123
     3  C    0.003487  -0.000000  -0.000000  -0.000133  -0.000134   0.004697
     4  C   -0.011584  -0.000002  -0.000002   0.000141   0.000141  -0.007963
     5  H    0.000001   0.000000   0.000000   0.000000   0.000000   0.000001
     6  C    0.013142   0.000044   0.000044   0.000477   0.000479  -0.010463
     7  H   -0.000015  -0.000000  -0.000000   0.000000   0.000000   0.000453
     8  C   -0.120263  -0.000234  -0.000233  -0.010770  -0.010828  -0.097579
     9  C   -0.038312  -0.001599  -0.001601   0.015360   0.015423   0.439673
    10  C    0.036830   0.000021   0.000020  -0.003837  -0.003827   0.036017
    11  C   -0.171241   0.006659   0.006650  -0.009175  -0.009225  -0.007161
    12  C    0.675324   0.005608   0.005604  -0.003760  -0.003756  -0.001208
    13  C   -0.566447  -0.003185  -0.003165  -0.007059  -0.007098  -0.002204
    14  N    0.013188   0.000335   0.000334   0.000289   0.000289  -0.000280
    15  H   -0.004867   0.000461   0.000461  -0.000001  -0.000001   0.000000
    16  C    0.369599   0.001891   0.001889  -0.009584  -0.009437   0.039354
    17  C   -0.835779  -0.103255  -0.103246   0.022193   0.022026  -0.001771
    18  C   -0.074054  -0.003155  -0.003161   0.014185   0.014219  -0.063976
    19  C   -0.144431  -0.003275  -0.003277   0.000936   0.000937  -0.000016
    20  C    0.675285   0.049124   0.049074  -0.090375  -0.089966  -0.013776
    21  H    0.000151  -0.000000  -0.000000  -0.000000  -0.000000   0.000003
    22  H   -0.000019  -0.000000  -0.000000   0.000000   0.000000  -0.000000
    23  C   -0.694051  -0.012298  -0.012242  -0.000405  -0.000445  -0.000363
    24  C   -1.665288  -0.095298  -0.095249   0.458924   0.458357  -0.002992
    25  C    8.281203   0.485716   0.485661  -0.047727  -0.047481  -0.000258
    26  H    0.485716   0.491628  -0.024285  -0.005081   0.002098  -0.000000
    27  H    0.485661  -0.024285   0.491625   0.002098  -0.005081   0.000000
    28  H   -0.047727  -0.005081   0.002098   0.480113  -0.021370   0.000299
    29  H   -0.047481   0.002098  -0.005081  -0.021370   0.480108  -0.000176
    30  H   -0.000258  -0.000000   0.000000   0.000299  -0.000176   0.477394
    31  H   -0.000208   0.000000  -0.000000  -0.000176   0.000299  -0.021900
    32  H   -0.001034  -0.000000  -0.000000  -0.000000  -0.000000   0.000000
    33  H   -0.001746   0.000001   0.000001  -0.000000  -0.000000  -0.000000
    34  C   -0.000309  -0.000000  -0.000000  -0.000004  -0.000004  -0.000033
    35  O   -0.000001   0.000000   0.000000  -0.000000  -0.000000  -0.000000
    36  O   -0.000001  -0.000000  -0.000000   0.000000   0.000000  -0.000000
    37  H   -0.000000   0.000000   0.000000   0.000000   0.000000  -0.000000
              31         32         33         34         35         36
     1  N    0.000150  -0.000504   0.000003   0.007495  -0.022496  -0.003793
     2  C    0.007283   0.001342  -0.000045  -0.435925  -0.034672  -0.046784
     3  C    0.004640   0.000293   0.000001  -0.397257  -0.342799   0.002080
     4  C   -0.008201   0.000041   0.000000   0.060317   0.030627   0.044691
     5  H    0.000001   0.000000  -0.000000  -0.088301  -0.000085  -0.001945
     6  C   -0.010423   0.000035  -0.000001  -0.610581   0.047565   0.155738
     7  H    0.000453  -0.000000   0.000000   0.005400   0.000022   0.000077
     8  C   -0.098680  -0.000834  -0.000014  -0.318199   0.014067   0.047660
     9  C    0.440468   0.000692   0.000065  -0.250468  -0.002699   0.002696
    10  C    0.036165  -0.005041   0.000095  -0.593101   0.119782  -0.011757
    11  C   -0.007153   0.082033  -0.010721   0.005325  -0.001126  -0.000006
    12  C   -0.001204   0.211256  -0.012040  -0.001504   0.000469  -0.000038
    13  C   -0.002202   0.069470   0.045240   0.014631   0.000993  -0.000328
    14  N   -0.000279  -0.017765  -0.000276  -0.009703  -0.002195  -0.000266
    15  H    0.000000  -0.000117  -0.003360  -0.000000  -0.000000  -0.000000
    16  C    0.039706  -0.018640   0.000539   0.069092   0.043260   0.000842
    17  C   -0.001812  -0.023191   0.019880   0.000567   0.000004  -0.000003
    18  C   -0.063710   0.011870   0.000199  -0.035818   0.007052  -0.000512
    19  C   -0.000016   0.020509   0.259982  -0.000035   0.000059   0.000002
    20  C   -0.013904   0.015882   0.000498   0.021105   0.001059   0.000290
    21  H    0.000003   0.001975  -0.000003  -0.000353  -0.000005   0.000006
    22  H   -0.000000   0.000000   0.000000   0.004035   0.016318   0.000128
    23  C   -0.000367  -0.022524   0.023900   0.000215  -0.000006   0.000001
    24  C   -0.003216  -0.001072   0.001969   0.000128   0.000024   0.000021
    25  C   -0.000208  -0.001034  -0.001746  -0.000309  -0.000001  -0.000001
    26  H    0.000000  -0.000000   0.000001  -0.000000   0.000000  -0.000000
    27  H   -0.000000  -0.000000   0.000001  -0.000000   0.000000  -0.000000
    28  H   -0.000176  -0.000000  -0.000000  -0.000004  -0.000000   0.000000
    29  H    0.000299  -0.000000  -0.000000  -0.000004  -0.000000   0.000000
    30  H   -0.021900   0.000000  -0.000000  -0.000033  -0.000000  -0.000000
    31  H    0.477380   0.000000  -0.000000  -0.000044  -0.000000  -0.000000
    32  H    0.000000   0.487708  -0.003717  -0.000022  -0.000000   0.000000
    33  H   -0.000000  -0.003717   0.490142   0.000000   0.000000  -0.000000
    34  C   -0.000044  -0.000022   0.000000   6.989264   0.367386  -0.168995
    35  O   -0.000000  -0.000000   0.000000   0.367386   8.469696  -0.144340
    36  O   -0.000000   0.000000  -0.000000  -0.168995  -0.144340   8.425216
    37  H   -0.000000   0.000000  -0.000000   0.036055   0.007938   0.199953
              37
     1  N   -0.000259
     2  C    0.049195
     3  C    0.006464
     4  C   -0.046175
     5  H    0.000125
     6  C   -0.016181
     7  H   -0.000000
     8  C   -0.003425
     9  C   -0.000236
    10  C    0.004863
    11  C   -0.000001
    12  C   -0.000001
    13  C   -0.000005
    14  N   -0.000003
    15  H    0.000000
    16  C    0.001445
    17  C   -0.000000
    18  C   -0.000080
    19  C    0.000000
    20  C    0.000012
    21  H   -0.000000
    22  H    0.000036
    23  C    0.000000
    24  C    0.000000
    25  C   -0.000000
    26  H    0.000000
    27  H    0.000000
    28  H    0.000000
    29  H    0.000000
    30  H   -0.000000
    31  H   -0.000000
    32  H    0.000000
    33  H   -0.000000
    34  C    0.036055
    35  O    0.007938
    36  O    0.199953
    37  H    0.348365
 Mulliken charges:
               1
     1  N   -0.781440
     2  C    0.397108
     3  C   -0.573806
     4  C   -0.924960
     5  H    0.186554
     6  C   -0.502206
     7  H    0.179806
     8  C   -0.012922
     9  C   -0.950643
    10  C    0.479396
    11  C    0.059301
    12  C   -0.638188
    13  C    0.155523
    14  N   -0.097155
    15  H    0.189000
    16  C    0.009342
    17  C   -0.030203
    18  C    0.109009
    19  C    0.041285
    20  C    0.856938
    21  H    0.380842
    22  H    0.331465
    23  C   -0.501183
    24  C   -0.003890
    25  C   -0.706188
    26  H    0.208108
    27  H    0.208107
    28  H    0.215650
    29  H    0.215652
    30  H    0.226955
    31  H    0.226947
    32  H    0.191358
    33  H    0.189409
    34  C    1.329640
    35  O   -0.575896
    36  O   -0.500633
    37  H    0.411918
 Sum of Mulliken charges =  -0.00000
 Mulliken charges with hydrogens summed into heavy atoms:
               1
     1  N   -0.449974
     2  C    0.397108
     3  C   -0.573806
     4  C   -0.738406
     6  C   -0.322401
     8  C   -0.012922
     9  C   -0.496740
    10  C    0.479396
    11  C    0.059301
    12  C   -0.446830
    13  C    0.155523
    14  N    0.283688
    16  C    0.009342
    17  C   -0.030203
    18  C    0.109009
    19  C    0.230694
    20  C    0.856938
    23  C   -0.312183
    24  C    0.427412
    25  C   -0.289973
    34  C    1.329640
    35  O   -0.575896
    36  O   -0.088715
 Electronic spatial extent (au):  <R**2>=           8328.9156
 Charge=             -0.0000 electrons
 Dipole moment (field-independent basis, Debye):
    X=             10.8361    Y=              6.2018    Z=              0.0002  Tot=             12.4853
 Quadrupole moment (field-independent basis, Debye-Ang):
   XX=           -113.2268   YY=           -121.2165   ZZ=           -136.6022
   XY=             -8.4675   XZ=              0.0016   YZ=              0.0068
 Traceless Quadrupole moment (field-independent basis, Debye-Ang):
   XX=             10.4550   YY=              2.4653   ZZ=            -12.9204
   XY=             -8.4675   XZ=              0.0016   YZ=              0.0068
 Octapole moment (field-independent basis, Debye-Ang**2):
  XXX=             77.8334  YYY=             30.8316  ZZZ=              0.0033  XYY=             65.5322
  XXY=             32.4504  XXZ=              0.0282  XZZ=             -7.2986  YZZ=              6.5175
  YYZ=             -0.0095  XYZ=             -0.0289
 Hexadecapole moment (field-independent basis, Debye-Ang**3):
 XXXX=          -7396.2336 YYYY=          -1999.8093 ZZZZ=           -171.5807 XXXY=             35.6786
 XXXZ=             -0.0571 YYYX=           -135.4283 YYYZ=              0.0347 ZZZX=              0.0083
 ZZZY=             -0.0036 XXYY=          -1804.7929 XXZZ=          -1572.6156 YYZZ=           -405.1451
 XXYZ=              0.1501 YYXZ=              0.0510 ZZXY=             58.3125
 N-N= 1.778677424273D+03 E-N=-5.862232212547D+03  KE= 9.829431561533D+02
 Leave Link  601 at Tue Feb 11 12:02:12 2025, MaxMem=  8375500800 cpu:               4.2 elap:               0.2
 (Enter /gpfslocalsup/prod/g16/rev-C01/g16/l9999.exe)
 Electronic transition elements 
                 1             2             3 
      1  -0.991305D+03 -0.991275D+03 -0.991255D+03
      2  -0.280292D+01 -0.248284D+00 -0.204143D+00
      3   0.612502D+00  0.241566D+00  0.377852D+00
      4   0.380283D-02  0.263312D-03  0.293030D-03
      5   0.260068D+00  0.379786D-01  0.328113D-01
      6  -0.602930D-01 -0.344626D-01 -0.524477D-01
      7  -0.356675D-03 -0.393033D-04 -0.565243D-04
      8   0.172245D-02 -0.471698D-03  0.556287D-03
      9   0.499734D-04  0.525827D-04 -0.129610D-03
     10   0.134277D+01 -0.251225D+00  0.368138D+00
     11  -0.312849D+00 -0.102076D+01 -0.889181D+00
     12  -0.384079D-01  0.748418D-02  0.205498D+00
     13   0.319424D-03  0.349805D-02  0.302648D-01
     14   0.320902D+00  0.112275D+00 -0.107268D+00
     15   0.372110D-03  0.134956D-02  0.116957D-02
     16  -0.408264D-03 -0.125265D-03  0.250672D-03
 Unable to Open any file for archive entry.
 1\1\GINC-R1I6N9\SP\RPBE1PBE TD-FC\6-31+G(d,p)\C19H14N2O2\UZX44EF\11-Fe
 b-2025\0\\#P PBE1PBE/6-31+G(d,p) Geom=AllCheck Guess=Read SCRF(PCM,Sol
 vent=Acetonitrile) TD(NStates=3, Root=1)\\Title\\0,1\N,0,1.9744008301,
 1.5451875697,0.0052409321\C,0,1.4079534321,0.3570083631,0.0058877137\C
 ,0,-0.007853743,0.0004900309,0.0076311531\C,0,-0.397025331,-1.34767523
 09,0.007925318\H,0,-1.4622513046,-1.5592152794,0.0091457634\C,0,0.4930
 258655,-2.4265453479,0.006652191\H,0,0.1250257766,-3.4471764725,0.0068
 882214\C,0,1.8522104655,-2.1305267218,0.0051034201\C,0,3.0517068657,-3
 .0519765634,0.003407011\C,0,2.2739448664,-0.7963694472,0.0048179866\C,
 0,6.35037882,-1.0378203596,-0.0009975041\C,0,6.6987679547,1.3428457297
 ,-0.0011399303\C,0,5.8119072091,0.2572363634,0.0000083856\N,0,4.437069
 3231,0.3415726514,0.0020868568\H,0,9.6766147067,-0.3635045328,-0.00596
 24537\C,0,3.6867718829,-0.7697424274,0.0029441543\C,0,7.7267334605,-1.
 2952055969,-0.0031383998\C,0,4.2164702735,-2.0960177672,0.0019864514\C
 ,0,8.066020003,1.0843517527,-0.0032604657\C,0,5.575412431,-2.232859864
 3,-0.0000672278\H,0,3.8722038452,1.2130992875,0.0028315459\H,0,1.25696
 63072,2.2672005213,0.005913815\C,0,8.5998480247,-0.2216357776,-0.00429
 38086\C,0,6.5149325105,-3.4085650142,-0.0017321358\C,0,7.9437894675,-2
 .790112239,-0.0037454174\H,0,8.5183453075,-3.1049095119,0.8736949683\H
 ,0,8.5157438957,-3.1045760867,-0.8830017203\H,0,6.3442562959,-4.041307
 9455,0.8759468146\H,0,6.3416101879,-4.040923425,-0.8791705131\H,0,3.05
 95271059,-3.7075081736,0.882997288\H,0,3.0572076369,-3.7073767698,-0.8
 762911125\H,0,6.3265456814,2.3624702394,-0.0004117117\H,0,8.7506541922
 ,1.9278172447,-0.0041622127\C,0,-1.016672509,1.045972423,0.0090325169\
 O,0,-0.7933957165,2.2560200952,0.0078477171\O,0,-2.2944652872,0.598016
 1095,0.0117435245\H,0,-2.8618387837,1.3830405128,0.0119300745\\Version
 =ES64L-G16RevC.01\State=1-A\HF=-991.4001216\RMSD=1.913e-09\PG=C01 [X(C
 19H14N2O2)]\\@
 The archive entry for this job was punched.


 WHERE THERE IS MUCH DESIRE TO LEARN, THERE OF NECESSITY WILL BE
 MUCH ARGUING, MUCH WRITING, MANY OPINIONS; FOR OPINION IN GOOD MEN
 IS BUT KNOWLEDGE IN THE MAKING. -- JOHN MILTON.
 Job cpu time:       0 days  2 hours 16 minutes  3.4 seconds.
 Elapsed time:       0 days  0 hours  3 minutes 28.3 seconds.
 File lengths (MBytes):  RWF=   1407 Int=      0 D2E=      0 Chk=     59 Scr=      1
 Normal termination of Gaussian 16 at Tue Feb 11 12:02:12 2025.
