 Set GAUSS_CDEF to "0-39".
 Set GAUSS_MDEF to "140GB".
 Entering Gaussian System, Link 0=g16
 Initial command:
 /gpfslocalsup/prod/g16/rev-C01/g16/l1.exe "/lustre/fsn1/jobscratch/uzx44ef_478151/Gau-700457.inp" -scrdir="/lustre/fsn1/jobscratch/uzx44ef_478151/"
 Default CPUs for threads: 0-39
 Default is to use a total of  40 processors:
                               40 via shared-memory
                                1 via Linda
 Entering Link 1 = /gpfslocalsup/prod/g16/rev-C01/g16/l1.exe PID=    700458.
  
 Copyright (c) 1988-2019, Gaussian, Inc.  All Rights Reserved.
  
 This is part of the Gaussian(R) 16 program.  It is based on
 the Gaussian(R) 09 system (copyright 2009, Gaussian, Inc.),
 the Gaussian(R) 03 system (copyright 2003, Gaussian, Inc.),
 the Gaussian(R) 98 system (copyright 1998, Gaussian, Inc.),
 the Gaussian(R) 94 system (copyright 1995, Gaussian, Inc.),
 the Gaussian 92(TM) system (copyright 1992, Gaussian, Inc.),
 the Gaussian 90(TM) system (copyright 1990, Gaussian, Inc.),
 the Gaussian 88(TM) system (copyright 1988, Gaussian, Inc.),
 the Gaussian 86(TM) system (copyright 1986, Carnegie Mellon
 University), and the Gaussian 82(TM) system (copyright 1983,
 Carnegie Mellon University). Gaussian is a federally registered
 trademark of Gaussian, Inc.
  
 This software contains proprietary and confidential information,
 including trade secrets, belonging to Gaussian, Inc.
  
 This software is provided under written license and may be
 used, copied, transmitted, or stored only in accord with that
 written license.
  
 The following legend is applicable only to US Government
 contracts under FAR:
  
                    RESTRICTED RIGHTS LEGEND
  
 Use, reproduction and disclosure by the US Government is
 subject to restrictions as set forth in subparagraphs (a)
 and (c) of the Commercial Computer Software - Restricted
 Rights clause in FAR 52.227-19.
  
 Gaussian, Inc.
 340 Quinnipiac St., Bldg. 40, Wallingford CT 06492
  
  
 ---------------------------------------------------------------
 Warning -- This program may not be used in any manner that
 competes with the business of Gaussian, Inc. or will provide
 assistance to any competitor of Gaussian, Inc.  The licensee
 of this program is prohibited from giving any competitor of
 Gaussian, Inc. access to this program.  By using this program,
 the user acknowledges that Gaussian, Inc. is engaged in the
 business of creating and licensing software in the field of
 computational chemistry and represents and warrants to the
 licensee that it is not a competitor of Gaussian, Inc. and that
 it will not use this program in any manner prohibited above.
 ---------------------------------------------------------------
  

 Cite this work as:
 Gaussian 16, Revision C.01,
 M. J. Frisch, G. W. Trucks, H. B. Schlegel, G. E. Scuseria, 
 M. A. Robb, J. R. Cheeseman, G. Scalmani, V. Barone, 
 G. A. Petersson, H. Nakatsuji, X. Li, M. Caricato, A. V. Marenich, 
 J. Bloino, B. G. Janesko, R. Gomperts, B. Mennucci, H. P. Hratchian, 
 J. V. Ortiz, A. F. Izmaylov, J. L. Sonnenberg, D. Williams-Young, 
 F. Ding, F. Lipparini, F. Egidi, J. Goings, B. Peng, A. Petrone, 
 T. Henderson, D. Ranasinghe, V. G. Zakrzewski, J. Gao, N. Rega, 
 G. Zheng, W. Liang, M. Hada, M. Ehara, K. Toyota, R. Fukuda, 
 J. Hasegawa, M. Ishida, T. Nakajima, Y. Honda, O. Kitao, H. Nakai, 
 T. Vreven, K. Throssell, J. A. Montgomery, Jr., J. E. Peralta, 
 F. Ogliaro, M. J. Bearpark, J. J. Heyd, E. N. Brothers, K. N. Kudin, 
 V. N. Staroverov, T. A. Keith, R. Kobayashi, J. Normand, 
 K. Raghavachari, A. P. Rendell, J. C. Burant, S. S. Iyengar, 
 J. Tomasi, M. Cossi, J. M. Millam, M. Klene, C. Adamo, R. Cammi, 
 J. W. Ochterski, R. L. Martin, K. Morokuma, O. Farkas, 
 J. B. Foresman, and D. J. Fox, Gaussian, Inc., Wallingford CT, 2019.
 
 ******************************************
 Gaussian 16:  ES64L-G16RevC.01  3-Jul-2019
                11-Feb-2025 
 ******************************************
 %mem=63900MB
 %nprocshared=40
 Will use up to   40 processors via shared memory.
 %chk=Rigid_ESIPT_TS_COOH_0.chk
 ----------------------------------------------------------------------
 #P PBE1PBE/6-31+G(d,p) Opt=(TS,NoEigen,calcfc) Freq SCRF(PCM,Solvent=A
 cetonitrile)
 ----------------------------------------------------------------------
 1/5=1,10=4,11=1,18=20,26=3,38=1/1,3;
 2/9=110,12=2,17=6,18=5,40=1/2;
 3/5=1,6=6,7=111,11=2,25=1,30=1,70=2201,71=2,72=2,74=-13,140=1/1,2,3;
 4//1;
 5/5=2,38=5,53=2/2;
 8/6=4,10=90,11=11/1;
 11/6=1,8=1,9=11,15=111,16=1/1,2,10;
 10/6=1,13=1/2;
 6/7=2,8=2,9=2,10=2,28=1/1;
 7/10=1,25=1/1,2,3,16;
 1/5=1,10=4,11=1,18=20,26=3/3(2);
 2/9=110/2;
 99//99;
 2/9=110/2;
 3/5=1,6=6,7=111,11=2,25=1,30=1,70=2205,71=1,72=2,74=-13/1,2,3;
 4/5=5,16=3,69=1/1;
 5/5=2,38=5,53=2/2;
 7//1,2,3,16;
 1/5=1,11=1,18=20,26=3/3(-5);
 2/9=110/2;
 6/7=2,8=2,9=2,10=2,19=2,28=1/1;
 99/9=1/99;
 Leave Link    1 at Tue Feb 11 11:44:40 2025, MaxMem=  8375500800 cpu:               6.7 elap:               0.2
 (Enter /gpfslocalsup/prod/g16/rev-C01/g16/l101.exe)
 -----
 Title
 -----
 Symbolic Z-matrix:
 Charge =  0 Multiplicity = 1
 N                    -2.04582   1.4707   -0.00002 
 C                    -1.39786   0.29735  -0.00001 
 C                     0.        0.        0. 
 C                     0.43495  -1.31968   0.00001 
 H                     1.50833  -1.4992    0.00001 
 C                    -0.42684  -2.44639   0. 
 H                    -0.01641  -3.45153   0.00001 
 C                    -1.78772  -2.19568  0. 
 C                    -3.0082   -3.107    -0.00001 
 C                    -2.21965  -0.86223  -0.00001 
 C                    -6.26042  -0.99306  -0.00003 
 C                    -6.53009   1.39965  -0.00004 
 C                    -5.67252   0.2866   -0.00003 
 N                    -4.29806   0.34002  -0.00003 
 H                    -9.56382  -0.20329  -0.00005 
 C                    -3.62685  -0.81472  -0.00002 
 C                    -7.64649  -1.19931  -0.00004 
 C                    -4.17089  -2.13411  -0.00002 
 C                    -7.90472   1.19084  -0.00005 
 C                    -5.53411  -2.22257  -0.00003 
 H                    -3.481     1.18028  -0.00002 
 H                    -1.43946   2.28425  -0.00001 
 C                    -8.48272  -0.09707  -0.00005 
 C                    -6.52071  -3.36011  -0.00003 
 C                    -7.92332  -2.68486  -0.00004 
 H                    -8.50897  -2.97673  -0.87826 
 H                    -8.50898  -2.97673   0.87819 
 H                    -6.37548  -3.99948  -0.87758 
 H                    -6.37549  -3.99948   0.87753 
 H                    -3.02806  -3.76254  -0.87937 
 H                    -3.02807  -3.76254   0.87935 
 H                    -6.1216    2.40566  -0.00004 
 H                    -8.56072   2.05707  -0.00005 
 C                     0.93372   1.03958   0. 
 O                     0.69392   2.23136   0.0456 
 O                     2.18995   0.57221  -0.05831 
 H                     2.74797   1.37814  -0.05253 
 
 ITRead=  0  0  0  0  0  0  0  0  0  0  0  0  0  0  0  0  0  0  0  0
 ITRead=  0  0  0  0  0  0  0  0  0  0  0  0  0  0  0  0  0
 MicOpt= -1 -1 -1 -1 -1 -1 -1 -1 -1 -1 -1 -1 -1 -1 -1 -1 -1 -1 -1 -1
 MicOpt= -1 -1 -1 -1 -1 -1 -1 -1 -1 -1 -1 -1 -1 -1 -1 -1 -1
 NAtoms=     37 NQM=       37 NQMF=       0 NMMI=      0 NMMIF=      0
                NMic=       0 NMicF=      0.
                    Isotopes and Nuclear Properties:
 (Nuclear quadrupole moments (NQMom) in fm**2, nuclear magnetic moments (NMagM)
  in nuclear magnetons)

  Atom         1           2           3           4           5           6           7           8           9          10
 IAtWgt=          14          12          12          12           1          12           1          12          12          12
 AtmWgt=  14.0030740  12.0000000  12.0000000  12.0000000   1.0078250  12.0000000   1.0078250  12.0000000  12.0000000  12.0000000
 NucSpn=           2           0           0           0           1           0           1           0           0           0
 AtZEff=  -0.0000000  -0.0000000  -0.0000000  -0.0000000  -0.0000000  -0.0000000  -0.0000000  -0.0000000  -0.0000000  -0.0000000
 NQMom=    2.0440000   0.0000000   0.0000000   0.0000000   0.0000000   0.0000000   0.0000000   0.0000000   0.0000000   0.0000000
 NMagM=    0.4037610   0.0000000   0.0000000   0.0000000   2.7928460   0.0000000   2.7928460   0.0000000   0.0000000   0.0000000
 AtZNuc=   7.0000000   6.0000000   6.0000000   6.0000000   1.0000000   6.0000000   1.0000000   6.0000000   6.0000000   6.0000000

  Atom        11          12          13          14          15          16          17          18          19          20
 IAtWgt=          12          12          12          14           1          12          12          12          12          12
 AtmWgt=  12.0000000  12.0000000  12.0000000  14.0030740   1.0078250  12.0000000  12.0000000  12.0000000  12.0000000  12.0000000
 NucSpn=           0           0           0           2           1           0           0           0           0           0
 AtZEff=  -0.0000000  -0.0000000  -0.0000000  -0.0000000  -0.0000000  -0.0000000  -0.0000000  -0.0000000  -0.0000000  -0.0000000
 NQMom=    0.0000000   0.0000000   0.0000000   2.0440000   0.0000000   0.0000000   0.0000000   0.0000000   0.0000000   0.0000000
 NMagM=    0.0000000   0.0000000   0.0000000   0.4037610   2.7928460   0.0000000   0.0000000   0.0000000   0.0000000   0.0000000
 AtZNuc=   6.0000000   6.0000000   6.0000000   7.0000000   1.0000000   6.0000000   6.0000000   6.0000000   6.0000000   6.0000000

  Atom        21          22          23          24          25          26          27          28          29          30
 IAtWgt=           1           1          12          12          12           1           1           1           1           1
 AtmWgt=   1.0078250   1.0078250  12.0000000  12.0000000  12.0000000   1.0078250   1.0078250   1.0078250   1.0078250   1.0078250
 NucSpn=           1           1           0           0           0           1           1           1           1           1
 AtZEff=  -0.0000000  -0.0000000  -0.0000000  -0.0000000  -0.0000000  -0.0000000  -0.0000000  -0.0000000  -0.0000000  -0.0000000
 NQMom=    0.0000000   0.0000000   0.0000000   0.0000000   0.0000000   0.0000000   0.0000000   0.0000000   0.0000000   0.0000000
 NMagM=    2.7928460   2.7928460   0.0000000   0.0000000   0.0000000   2.7928460   2.7928460   2.7928460   2.7928460   2.7928460
 AtZNuc=   1.0000000   1.0000000   6.0000000   6.0000000   6.0000000   1.0000000   1.0000000   1.0000000   1.0000000   1.0000000

  Atom        31          32          33          34          35          36          37
 IAtWgt=           1           1           1          12          16          16           1
 AtmWgt=   1.0078250   1.0078250   1.0078250  12.0000000  15.9949146  15.9949146   1.0078250
 NucSpn=           1           1           1           0           0           0           1
 AtZEff=  -0.0000000  -0.0000000  -0.0000000  -0.0000000  -0.0000000  -0.0000000  -0.0000000
 NQMom=    0.0000000   0.0000000   0.0000000   0.0000000   0.0000000   0.0000000   0.0000000
 NMagM=    2.7928460   2.7928460   2.7928460   0.0000000   0.0000000   0.0000000   2.7928460
 AtZNuc=   1.0000000   1.0000000   1.0000000   6.0000000   8.0000000   8.0000000   1.0000000
 Leave Link  101 at Tue Feb 11 11:44:41 2025, MaxMem=  8375500800 cpu:              15.6 elap:               0.5
 (Enter /gpfslocalsup/prod/g16/rev-C01/g16/l103.exe)

 GradGradGradGradGradGradGradGradGradGradGradGradGradGradGradGradGradGrad
 Berny optimization.
 Initialization pass.
                           ----------------------------
                           !    Initial Parameters    !
                           ! (Angstroms and Degrees)  !
 --------------------------                            --------------------------
 ! Name  Definition              Value          Derivative Info.                !
 --------------------------------------------------------------------------------
 ! R1    R(1,2)                  1.3404         calculate D2E/DX2 analytically  !
 ! R2    R(1,22)                 1.0147         calculate D2E/DX2 analytically  !
 ! R3    R(2,3)                  1.4291         calculate D2E/DX2 analytically  !
 ! R4    R(2,10)                 1.4213         calculate D2E/DX2 analytically  !
 ! R5    R(3,4)                  1.3895         calculate D2E/DX2 analytically  !
 ! R6    R(3,34)                 1.3973         calculate D2E/DX2 analytically  !
 ! R7    R(4,5)                  1.0883         calculate D2E/DX2 analytically  !
 ! R8    R(4,6)                  1.4185         calculate D2E/DX2 analytically  !
 ! R9    R(6,7)                  1.0857         calculate D2E/DX2 analytically  !
 ! R10   R(6,8)                  1.3838         calculate D2E/DX2 analytically  !
 ! R11   R(8,9)                  1.5232         calculate D2E/DX2 analytically  !
 ! R12   R(8,10)                 1.4017         calculate D2E/DX2 analytically  !
 ! R13   R(9,18)                 1.516          calculate D2E/DX2 analytically  !
 ! R14   R(9,30)                 1.097          calculate D2E/DX2 analytically  !
 ! R15   R(9,31)                 1.097          calculate D2E/DX2 analytically  !
 ! R16   R(10,16)                1.408          calculate D2E/DX2 analytically  !
 ! R17   R(11,13)                1.4082         calculate D2E/DX2 analytically  !
 ! R18   R(11,17)                1.4013         calculate D2E/DX2 analytically  !
 ! R19   R(11,20)                1.428          calculate D2E/DX2 analytically  !
 ! R20   R(12,13)                1.4051         calculate D2E/DX2 analytically  !
 ! R21   R(12,19)                1.3904         calculate D2E/DX2 analytically  !
 ! R22   R(12,32)                1.0858         calculate D2E/DX2 analytically  !
 ! R23   R(13,14)                1.3755         calculate D2E/DX2 analytically  !
 ! R24   R(14,16)                1.3356         calculate D2E/DX2 analytically  !
 ! R25   R(14,21)                1.172          calculate D2E/DX2 analytically  !
 ! R26   R(15,23)                1.0863         calculate D2E/DX2 analytically  !
 ! R27   R(16,18)                1.4272         calculate D2E/DX2 analytically  !
 ! R28   R(17,23)                1.3836         calculate D2E/DX2 analytically  !
 ! R29   R(17,25)                1.5111         calculate D2E/DX2 analytically  !
 ! R30   R(18,20)                1.3661         calculate D2E/DX2 analytically  !
 ! R31   R(19,23)                1.4117         calculate D2E/DX2 analytically  !
 ! R32   R(19,33)                1.0866         calculate D2E/DX2 analytically  !
 ! R33   R(20,24)                1.5058         calculate D2E/DX2 analytically  !
 ! R34   R(24,25)                1.5567         calculate D2E/DX2 analytically  !
 ! R35   R(24,28)                1.0954         calculate D2E/DX2 analytically  !
 ! R36   R(24,29)                1.0954         calculate D2E/DX2 analytically  !
 ! R37   R(25,26)                1.0952         calculate D2E/DX2 analytically  !
 ! R38   R(25,27)                1.0952         calculate D2E/DX2 analytically  !
 ! R39   R(34,35)                1.2165         calculate D2E/DX2 analytically  !
 ! R40   R(34,36)                1.3416         calculate D2E/DX2 analytically  !
 ! R41   R(36,37)                0.9803         calculate D2E/DX2 analytically  !
 ! A1    A(2,1,22)             114.3932         calculate D2E/DX2 analytically  !
 ! A2    A(1,2,3)              130.9174         calculate D2E/DX2 analytically  !
 ! A3    A(1,2,10)             115.7661         calculate D2E/DX2 analytically  !
 ! A4    A(3,2,10)             113.3166         calculate D2E/DX2 analytically  !
 ! A5    A(2,3,4)              120.2503         calculate D2E/DX2 analytically  !
 ! A6    A(2,3,34)             119.9207         calculate D2E/DX2 analytically  !
 ! A7    A(4,3,34)             119.829          calculate D2E/DX2 analytically  !
 ! A8    A(3,4,5)              117.7365         calculate D2E/DX2 analytically  !
 ! A9    A(3,4,6)              124.3471         calculate D2E/DX2 analytically  !
 ! A10   A(5,4,6)              117.9165         calculate D2E/DX2 analytically  !
 ! A11   A(4,6,7)              120.3769         calculate D2E/DX2 analytically  !
 ! A12   A(4,6,8)              116.973          calculate D2E/DX2 analytically  !
 ! A13   A(7,6,8)              122.6501         calculate D2E/DX2 analytically  !
 ! A14   A(6,8,9)              132.8134         calculate D2E/DX2 analytically  !
 ! A15   A(6,8,10)             118.3866         calculate D2E/DX2 analytically  !
 ! A16   A(9,8,10)             108.8            calculate D2E/DX2 analytically  !
 ! A17   A(8,9,18)             103.3305         calculate D2E/DX2 analytically  !
 ! A18   A(8,9,30)             111.8416         calculate D2E/DX2 analytically  !
 ! A19   A(8,9,31)             111.8416         calculate D2E/DX2 analytically  !
 ! A20   A(18,9,30)            111.6908         calculate D2E/DX2 analytically  !
 ! A21   A(18,9,31)            111.6908         calculate D2E/DX2 analytically  !
 ! A22   A(30,9,31)            106.5674         calculate D2E/DX2 analytically  !
 ! A23   A(2,10,8)             126.7264         calculate D2E/DX2 analytically  !
 ! A24   A(2,10,16)            123.3918         calculate D2E/DX2 analytically  !
 ! A25   A(8,10,16)            109.8818         calculate D2E/DX2 analytically  !
 ! A26   A(13,11,17)           123.1382         calculate D2E/DX2 analytically  !
 ! A27   A(13,11,20)           124.7539         calculate D2E/DX2 analytically  !
 ! A28   A(17,11,20)           112.1079         calculate D2E/DX2 analytically  !
 ! A29   A(13,12,19)           118.9757         calculate D2E/DX2 analytically  !
 ! A30   A(13,12,32)           120.2871         calculate D2E/DX2 analytically  !
 ! A31   A(19,12,32)           120.7372         calculate D2E/DX2 analytically  !
 ! A32   A(11,13,12)           117.7122         calculate D2E/DX2 analytically  !
 ! A33   A(11,13,14)           116.9002         calculate D2E/DX2 analytically  !
 ! A34   A(12,13,14)           125.3876         calculate D2E/DX2 analytically  !
 ! A35   A(13,14,16)           117.9424         calculate D2E/DX2 analytically  !
 ! A36   A(13,14,21)           136.4235         calculate D2E/DX2 analytically  !
 ! A37   A(16,14,21)           105.6341         calculate D2E/DX2 analytically  !
 ! A38   A(10,16,14)           122.1014         calculate D2E/DX2 analytically  !
 ! A39   A(10,16,18)           110.4752         calculate D2E/DX2 analytically  !
 ! A40   A(14,16,18)           127.4234         calculate D2E/DX2 analytically  !
 ! A41   A(11,17,23)           118.7229         calculate D2E/DX2 analytically  !
 ! A42   A(11,17,25)           109.0196         calculate D2E/DX2 analytically  !
 ! A43   A(23,17,25)           132.2575         calculate D2E/DX2 analytically  !
 ! A44   A(9,18,16)            107.5126         calculate D2E/DX2 analytically  !
 ! A45   A(9,18,20)            136.366          calculate D2E/DX2 analytically  !
 ! A46   A(16,18,20)           116.1215         calculate D2E/DX2 analytically  !
 ! A47   A(12,19,23)           122.8075         calculate D2E/DX2 analytically  !
 ! A48   A(12,19,33)           118.4997         calculate D2E/DX2 analytically  !
 ! A49   A(23,19,33)           118.6928         calculate D2E/DX2 analytically  !
 ! A50   A(11,20,18)           116.8586         calculate D2E/DX2 analytically  !
 ! A51   A(11,20,24)           108.4933         calculate D2E/DX2 analytically  !
 ! A52   A(18,20,24)           134.6481         calculate D2E/DX2 analytically  !
 ! A53   A(15,23,17)           121.5754         calculate D2E/DX2 analytically  !
 ! A54   A(15,23,19)           119.7811         calculate D2E/DX2 analytically  !
 ! A55   A(17,23,19)           118.6435         calculate D2E/DX2 analytically  !
 ! A56   A(20,24,25)           105.228          calculate D2E/DX2 analytically  !
 ! A57   A(20,24,28)           110.7363         calculate D2E/DX2 analytically  !
 ! A58   A(20,24,29)           110.7364         calculate D2E/DX2 analytically  !
 ! A59   A(25,24,28)           111.8777         calculate D2E/DX2 analytically  !
 ! A60   A(25,24,29)           111.8777         calculate D2E/DX2 analytically  !
 ! A61   A(28,24,29)           106.4706         calculate D2E/DX2 analytically  !
 ! A62   A(17,25,24)           105.1512         calculate D2E/DX2 analytically  !
 ! A63   A(17,25,26)           111.0974         calculate D2E/DX2 analytically  !
 ! A64   A(17,25,27)           111.0973         calculate D2E/DX2 analytically  !
 ! A65   A(24,25,26)           111.4826         calculate D2E/DX2 analytically  !
 ! A66   A(24,25,27)           111.4826         calculate D2E/DX2 analytically  !
 ! A67   A(26,25,27)           106.6214         calculate D2E/DX2 analytically  !
 ! A68   A(3,34,35)            126.664          calculate D2E/DX2 analytically  !
 ! A69   A(3,34,36)            111.501          calculate D2E/DX2 analytically  !
 ! A70   A(35,34,36)           121.835          calculate D2E/DX2 analytically  !
 ! A71   A(34,36,37)           104.262          calculate D2E/DX2 analytically  !
 ! D1    D(22,1,2,3)             0.0            calculate D2E/DX2 analytically  !
 ! D2    D(22,1,2,10)         -180.0            calculate D2E/DX2 analytically  !
 ! D3    D(1,2,3,4)           -180.0            calculate D2E/DX2 analytically  !
 ! D4    D(1,2,3,34)             0.0001         calculate D2E/DX2 analytically  !
 ! D5    D(10,2,3,4)             0.0            calculate D2E/DX2 analytically  !
 ! D6    D(10,2,3,34)          180.0            calculate D2E/DX2 analytically  !
 ! D7    D(1,2,10,8)           180.0            calculate D2E/DX2 analytically  !
 ! D8    D(1,2,10,16)            0.0            calculate D2E/DX2 analytically  !
 ! D9    D(3,2,10,8)             0.0001         calculate D2E/DX2 analytically  !
 ! D10   D(3,2,10,16)         -180.0            calculate D2E/DX2 analytically  !
 ! D11   D(2,3,4,5)           -179.9999         calculate D2E/DX2 analytically  !
 ! D12   D(2,3,4,6)              0.0            calculate D2E/DX2 analytically  !
 ! D13   D(34,3,4,5)             0.0            calculate D2E/DX2 analytically  !
 ! D14   D(34,3,4,6)          -180.0            calculate D2E/DX2 analytically  !
 ! D15   D(2,3,34,35)            2.6787         calculate D2E/DX2 analytically  !
 ! D16   D(2,3,34,36)         -177.3223         calculate D2E/DX2 analytically  !
 ! D17   D(4,3,34,35)         -177.3212         calculate D2E/DX2 analytically  !
 ! D18   D(4,3,34,36)            2.6777         calculate D2E/DX2 analytically  !
 ! D19   D(3,4,6,7)            180.0            calculate D2E/DX2 analytically  !
 ! D20   D(3,4,6,8)              0.0            calculate D2E/DX2 analytically  !
 ! D21   D(5,4,6,7)              0.0            calculate D2E/DX2 analytically  !
 ! D22   D(5,4,6,8)            180.0            calculate D2E/DX2 analytically  !
 ! D23   D(4,6,8,9)           -180.0            calculate D2E/DX2 analytically  !
 ! D24   D(4,6,8,10)             0.0            calculate D2E/DX2 analytically  !
 ! D25   D(7,6,8,9)              0.0            calculate D2E/DX2 analytically  !
 ! D26   D(7,6,8,10)           180.0            calculate D2E/DX2 analytically  !
 ! D27   D(6,8,9,18)          -180.0            calculate D2E/DX2 analytically  !
 ! D28   D(6,8,9,30)           -59.723          calculate D2E/DX2 analytically  !
 ! D29   D(6,8,9,31)            59.723          calculate D2E/DX2 analytically  !
 ! D30   D(10,8,9,18)            0.0            calculate D2E/DX2 analytically  !
 ! D31   D(10,8,9,30)          120.277          calculate D2E/DX2 analytically  !
 ! D32   D(10,8,9,31)         -120.277          calculate D2E/DX2 analytically  !
 ! D33   D(6,8,10,2)             0.0            calculate D2E/DX2 analytically  !
 ! D34   D(6,8,10,16)          180.0            calculate D2E/DX2 analytically  !
 ! D35   D(9,8,10,2)           180.0            calculate D2E/DX2 analytically  !
 ! D36   D(9,8,10,16)            0.0            calculate D2E/DX2 analytically  !
 ! D37   D(8,9,18,16)            0.0            calculate D2E/DX2 analytically  !
 ! D38   D(8,9,18,20)          179.9999         calculate D2E/DX2 analytically  !
 ! D39   D(30,9,18,16)        -120.3799         calculate D2E/DX2 analytically  !
 ! D40   D(30,9,18,20)          59.6201         calculate D2E/DX2 analytically  !
 ! D41   D(31,9,18,16)         120.3799         calculate D2E/DX2 analytically  !
 ! D42   D(31,9,18,20)         -59.6201         calculate D2E/DX2 analytically  !
 ! D43   D(2,10,16,14)           0.0            calculate D2E/DX2 analytically  !
 ! D44   D(2,10,16,18)        -180.0            calculate D2E/DX2 analytically  !
 ! D45   D(8,10,16,14)        -180.0            calculate D2E/DX2 analytically  !
 ! D46   D(8,10,16,18)           0.0            calculate D2E/DX2 analytically  !
 ! D47   D(17,11,13,12)          0.0            calculate D2E/DX2 analytically  !
 ! D48   D(17,11,13,14)        180.0            calculate D2E/DX2 analytically  !
 ! D49   D(20,11,13,12)        180.0            calculate D2E/DX2 analytically  !
 ! D50   D(20,11,13,14)         -0.0001         calculate D2E/DX2 analytically  !
 ! D51   D(13,11,17,23)          0.0            calculate D2E/DX2 analytically  !
 ! D52   D(13,11,17,25)       -180.0            calculate D2E/DX2 analytically  !
 ! D53   D(20,11,17,23)       -180.0            calculate D2E/DX2 analytically  !
 ! D54   D(20,11,17,25)          0.0001         calculate D2E/DX2 analytically  !
 ! D55   D(13,11,20,18)          0.0001         calculate D2E/DX2 analytically  !
 ! D56   D(13,11,20,24)       -179.9999         calculate D2E/DX2 analytically  !
 ! D57   D(17,11,20,18)       -180.0            calculate D2E/DX2 analytically  !
 ! D58   D(17,11,20,24)          0.0            calculate D2E/DX2 analytically  !
 ! D59   D(19,12,13,11)          0.0            calculate D2E/DX2 analytically  !
 ! D60   D(19,12,13,14)       -180.0            calculate D2E/DX2 analytically  !
 ! D61   D(32,12,13,11)        180.0            calculate D2E/DX2 analytically  !
 ! D62   D(32,12,13,14)          0.0            calculate D2E/DX2 analytically  !
 ! D63   D(13,12,19,23)          0.0            calculate D2E/DX2 analytically  !
 ! D64   D(13,12,19,33)        180.0            calculate D2E/DX2 analytically  !
 ! D65   D(32,12,19,23)       -180.0            calculate D2E/DX2 analytically  !
 ! D66   D(32,12,19,33)          0.0            calculate D2E/DX2 analytically  !
 ! D67   D(11,13,14,16)          0.0001         calculate D2E/DX2 analytically  !
 ! D68   D(11,13,14,21)       -180.0            calculate D2E/DX2 analytically  !
 ! D69   D(12,13,14,16)       -180.0            calculate D2E/DX2 analytically  !
 ! D70   D(12,13,14,21)          0.0            calculate D2E/DX2 analytically  !
 ! D71   D(13,14,16,10)        180.0            calculate D2E/DX2 analytically  !
 ! D72   D(13,14,16,18)          0.0            calculate D2E/DX2 analytically  !
 ! D73   D(21,14,16,10)          0.0            calculate D2E/DX2 analytically  !
 ! D74   D(21,14,16,18)        180.0            calculate D2E/DX2 analytically  !
 ! D75   D(10,16,18,9)           0.0            calculate D2E/DX2 analytically  !
 ! D76   D(10,16,18,20)       -180.0            calculate D2E/DX2 analytically  !
 ! D77   D(14,16,18,9)         180.0            calculate D2E/DX2 analytically  !
 ! D78   D(14,16,18,20)          0.0            calculate D2E/DX2 analytically  !
 ! D79   D(11,17,23,15)        180.0            calculate D2E/DX2 analytically  !
 ! D80   D(11,17,23,19)          0.0            calculate D2E/DX2 analytically  !
 ! D81   D(25,17,23,15)         -0.0001         calculate D2E/DX2 analytically  !
 ! D82   D(25,17,23,19)        180.0            calculate D2E/DX2 analytically  !
 ! D83   D(11,17,25,24)         -0.0001         calculate D2E/DX2 analytically  !
 ! D84   D(11,17,25,26)       -120.7398         calculate D2E/DX2 analytically  !
 ! D85   D(11,17,25,27)        120.7394         calculate D2E/DX2 analytically  !
 ! D86   D(23,17,25,24)        179.9999         calculate D2E/DX2 analytically  !
 ! D87   D(23,17,25,26)         59.2603         calculate D2E/DX2 analytically  !
 ! D88   D(23,17,25,27)        -59.2605         calculate D2E/DX2 analytically  !
 ! D89   D(9,18,20,11)        -180.0            calculate D2E/DX2 analytically  !
 ! D90   D(9,18,20,24)           0.0            calculate D2E/DX2 analytically  !
 ! D91   D(16,18,20,11)         -0.0001         calculate D2E/DX2 analytically  !
 ! D92   D(16,18,20,24)        180.0            calculate D2E/DX2 analytically  !
 ! D93   D(12,19,23,15)       -180.0            calculate D2E/DX2 analytically  !
 ! D94   D(12,19,23,17)          0.0            calculate D2E/DX2 analytically  !
 ! D95   D(33,19,23,15)          0.0            calculate D2E/DX2 analytically  !
 ! D96   D(33,19,23,17)       -180.0            calculate D2E/DX2 analytically  !
 ! D97   D(11,20,24,25)         -0.0001         calculate D2E/DX2 analytically  !
 ! D98   D(11,20,24,28)        121.0639         calculate D2E/DX2 analytically  !
 ! D99   D(11,20,24,29)       -121.0643         calculate D2E/DX2 analytically  !
 ! D100  D(18,20,24,25)        179.9999         calculate D2E/DX2 analytically  !
 ! D101  D(18,20,24,28)        -58.9361         calculate D2E/DX2 analytically  !
 ! D102  D(18,20,24,29)         58.9357         calculate D2E/DX2 analytically  !
 ! D103  D(20,24,25,17)          0.0001         calculate D2E/DX2 analytically  !
 ! D104  D(20,24,25,26)        120.4861         calculate D2E/DX2 analytically  !
 ! D105  D(20,24,25,27)       -120.4857         calculate D2E/DX2 analytically  !
 ! D106  D(28,24,25,17)       -120.3138         calculate D2E/DX2 analytically  !
 ! D107  D(28,24,25,26)          0.1721         calculate D2E/DX2 analytically  !
 ! D108  D(28,24,25,27)        119.2004         calculate D2E/DX2 analytically  !
 ! D109  D(29,24,25,17)        120.3143         calculate D2E/DX2 analytically  !
 ! D110  D(29,24,25,26)       -119.1998         calculate D2E/DX2 analytically  !
 ! D111  D(29,24,25,27)         -0.1716         calculate D2E/DX2 analytically  !
 ! D112  D(3,34,36,37)        -179.9995         calculate D2E/DX2 analytically  !
 ! D113  D(35,34,36,37)         -0.0005         calculate D2E/DX2 analytically  !
 --------------------------------------------------------------------------------
 Trust Radius=3.00D-01 FncErr=1.00D-07 GrdErr=1.00D-06 EigMax=2.50D+02 EigMin=1.00D-04
 Number of steps in this run=    222 maximum allowed number of steps=    222.
 Search for a saddle point of order  1.
 GradGradGradGradGradGradGradGradGradGradGradGradGradGradGradGradGradGrad

 Leave Link  103 at Tue Feb 11 11:44:41 2025, MaxMem=  8375500800 cpu:               1.2 elap:               0.1
 (Enter /gpfslocalsup/prod/g16/rev-C01/g16/l202.exe)
                          Input orientation:                          
 ---------------------------------------------------------------------
 Center     Atomic      Atomic             Coordinates (Angstroms)
 Number     Number       Type             X           Y           Z
 ---------------------------------------------------------------------
      1          7           0       -2.045821    1.470704   -0.000015
      2          6           0       -1.397862    0.297347   -0.000008
      3          6           0        0.000000    0.000000    0.000000
      4          6           0        0.434951   -1.319679    0.000006
      5          1           0        1.508332   -1.499202    0.000013
      6          6           0       -0.426836   -2.446389    0.000004
      7          1           0       -0.016406   -3.451526    0.000009
      8          6           0       -1.787720   -2.195680   -0.000004
      9          6           0       -3.008201   -3.106999   -0.000008
     10          6           0       -2.219655   -0.862228   -0.000010
     11          6           0       -6.260416   -0.993063   -0.000032
     12          6           0       -6.530093    1.399653   -0.000041
     13          6           0       -5.672521    0.286603   -0.000033
     14          7           0       -4.298058    0.340019   -0.000025
     15          1           0       -9.563819   -0.203285   -0.000053
     16          6           0       -3.626846   -0.814724   -0.000018
     17          6           0       -7.646485   -1.199311   -0.000039
     18          6           0       -4.170890   -2.134109   -0.000017
     19          6           0       -7.904717    1.190841   -0.000048
     20          6           0       -5.534114   -2.222571   -0.000025
     21          1           0       -3.480996    1.180283   -0.000023
     22          1           0       -1.439464    2.284250   -0.000014
     23          6           0       -8.482719   -0.097072   -0.000047
     24          6           0       -6.520709   -3.360111   -0.000028
     25          6           0       -7.923319   -2.684860   -0.000035
     26          1           0       -8.508973   -2.976734   -0.878263
     27          1           0       -8.508977   -2.976727    0.878192
     28          1           0       -6.375483   -3.999479   -0.877584
     29          1           0       -6.375491   -3.999479    0.877528
     30          1           0       -3.028062   -3.762544   -0.879366
     31          1           0       -3.028072   -3.762539    0.879353
     32          1           0       -6.121600    2.405663   -0.000042
     33          1           0       -8.560725    2.057070   -0.000054
     34          6           0        0.933722    1.039577    0.000003
     35          8           0        0.693922    2.231361    0.045605
     36          8           0        2.189954    0.572213   -0.058306
     37          1           0        2.747966    1.378137   -0.052526
 ---------------------------------------------------------------------
                    Distance matrix (angstroms):
                    1          2          3          4          5
     1  N    0.000000
     2  C    1.340380   0.000000
     3  C    2.519594   1.429137   0.000000
     4  C    3.733693   2.444172   1.389509   0.000000
     5  H    4.631668   3.416658   2.126657   1.088290   0.000000
     6  C    4.238482   2.910495   2.483346   1.418504   2.154539
     7  H    5.324178   3.995306   3.451565   2.179104   2.477175
     8  C    3.675457   2.523326   2.831423   2.389068   3.368834
     9  C    4.677771   3.766001   4.324664   3.879408   4.794172
    10  C    2.339399   1.421252   2.381240   2.693732   3.782013
    11  C    4.881901   5.030864   6.338689   6.703329   7.785218
    12  C    4.484835   5.249274   6.678409   7.477072   8.545153
    13  C    3.815108   4.274673   5.679757   6.315169   7.399578
    14  N    2.520123   2.900510   4.311486   5.015573   6.090722
    15  H    7.702112   8.181289   9.565979  10.060901  11.147732
    16  C    2.778996   2.490998   3.717228   4.093064   5.180595
    17  C    6.204548   6.425362   7.739966   8.082332   9.159728
    18  C    4.184566   3.688043   4.685162   4.677293   5.714601
    19  C    5.865576   6.567914   7.993914   8.709350   9.789884
    20  C    5.080204   4.843405   5.963744   6.036965   7.079499
    21  H    1.464265   2.262526   3.675650   4.645907   5.663306
    22  H    1.014656   1.987338   2.699973   4.062233   4.796250
    23  C    6.625072   7.095827   8.483274   9.001089  10.088958
    24  C    6.584937   6.294487   7.335529   7.248763   8.241874
    25  C    7.198173   7.174618   8.365851   8.469026   9.505884
    26  H    7.894514   7.877743   9.057313   9.138433  10.163704
    27  H    7.894509   7.877738   9.057307   9.138428  10.163698
    28  H    7.031287   6.633970   7.577121   7.371126   8.317217
    29  H    7.031289   6.633971   7.577122   7.371126   8.317216
    30  H    5.396753   4.462459   4.909092   4.328203   5.145376
    31  H    5.396752   4.462458   4.909092   4.328203   5.145376
    32  H    4.181641   5.172881   6.577325   7.540990   8.571105
    33  H    6.541238   7.375855   8.804405   9.608570  10.678623
    34  C    3.010573   2.446874   1.397340   2.411403   2.602994
    35  O    2.843742   2.849219   2.337216   3.560763   3.818696
    36  O    4.330413   3.598802   2.264228   2.581219   2.181461
    37  H    4.794968   4.284711   3.074628   3.554013   3.133453
                    6          7          8          9         10
     6  C    0.000000
     7  H    1.085704   0.000000
     8  C    1.383785   2.171337   0.000000
     9  C    2.664555   3.011567   1.523180   0.000000
    10  C    2.392439   3.399819   1.401664   2.379244   0.000000
    11  C    6.011889   6.710566   4.631555   3.878869   4.042879
    12  C    7.213999   8.121703   5.951178   5.719584   4.867852
    13  C    5.914935   6.779767   4.610142   4.314526   3.638969
    14  N    4.769741   5.719122   3.568132   3.680443   2.401074
    15  H    9.408293  10.084848   8.027288   7.169915   7.373666
    16  C    3.591990   4.470794   2.299875   2.374289   1.407993
    17  C    7.326564   7.955538   5.942885   5.015272   5.437289
    18  C    3.757055   4.358363   2.383965   1.516035   2.329163
    19  C    8.315536   9.152979   6.991865   6.515159   6.044421
    20  C    5.112180   5.652914   3.746491   2.676275   3.582760
    21  H    4.741376   5.784206   3.776812   4.313273   2.400590
    22  H    4.837805   5.909672   4.493446   5.614847   3.241762
    23  C    8.391456   9.106636   7.016207   6.247400   6.309630
    24  C    6.161994   6.504945   4.874124   3.521616   4.973780
    25  C    7.500275   7.943995   6.155069   4.933213   5.987802
    26  H    8.146997   8.551052   6.823242   5.571965   6.693130
    27  H    8.146992   8.551047   6.823237   5.571960   6.693125
    28  H    6.210366   6.442692   5.007136   3.592388   5.280472
    29  H    6.210365   6.442690   5.007135   3.592385   5.280472
    30  H    3.044985   3.152793   2.183298   1.096998   3.136658
    31  H    3.044985   3.152794   2.183298   1.096997   3.136658
    32  H    7.481494   8.460500   6.320987   6.331090   5.089625
    33  H    9.297381  10.166121   7.997467   7.582752   6.980793
    34  C    3.742069   4.590507   4.227663   5.721263   3.682479
    35  O    4.810356   5.727290   5.075364   6.496605   4.249859
    36  O    3.995366   4.589325   4.846290   6.368738   4.637421
    37  H    4.970827   5.565083   5.774718   7.297442   5.449702
                   11         12         13         14         15
    11  C    0.000000
    12  C    2.407865   0.000000
    13  C    1.408249   1.405101   0.000000
    14  N    2.372331   2.470790   1.375501   0.000000
    15  H    3.396501   3.431167   3.922014   5.293715   0.000000
    16  C    2.639601   3.651343   2.323297   1.335649   5.968375
    17  C    1.401330   2.828594   2.470723   3.685309   2.160610
    18  C    2.380778   4.248919   2.848639   2.477394   5.728155
    19  C    2.733709   1.390393   2.408391   3.705656   2.167073
    20  C    1.428007   3.756658   2.512988   2.845119   4.507332
    21  H    3.528259   3.056978   2.366737   1.172021   6.238189
    22  H    5.829439   5.166915   4.680744   3.457108   8.496645
    23  C    2.396128   2.460271   2.836269   4.207426   1.086305
    24  C    2.381317   4.759773   3.744055   4.316380   4.384754
    25  C    2.372219   4.315591   3.727692   4.721484   2.974803
    26  H    3.124460   4.882623   4.412042   5.431755   3.094507
    27  H    3.124456   4.882620   4.412039   5.431750   3.094509
    28  H    3.133987   5.472167   4.431112   4.890506   5.034544
    29  H    3.133990   5.472171   4.431115   4.890508   5.034548
    30  H    4.346420   6.299660   4.915484   4.383737   7.493840
    31  H    4.346420   6.299660   4.915484   4.383737   7.493840
    32  H    3.401560   1.085782   2.166123   2.755393   4.319199
    33  H    3.820305   2.134400   3.387665   4.595497   2.472934
    34  C    7.475777   7.472496   6.649016   5.278343  10.570860
    35  O    7.665625   7.271878   6.657008   5.338456  10.542809
    36  O    8.594315   8.759411   7.867877   6.492428  11.779473
    37  H    9.315379   9.278232   8.491101   7.122282  12.413045
                   16         17         18         19         20
    16  C    0.000000
    17  C    4.037995   0.000000
    18  C    1.427151   3.599112   0.000000
    19  C    4.724666   2.404061   4.999676   0.000000
    20  C    2.370592   2.347163   1.366091   4.155856   0.000000
    21  H    2.000331   4.797267   3.385432   4.423734   3.974256
    22  H    3.793189   7.117746   5.194476   6.557060   6.089137
    23  C    4.908618   1.383553   4.768793   1.411668   3.634834
    24  C    3.854016   2.436479   2.650421   4.756747   1.505778
    25  C    4.685839   1.511123   3.792631   3.875746   2.433518
    26  H    5.411170   2.162035   4.505585   4.301752   3.192154
    27  H    5.411166   2.162034   4.505580   4.301751   3.192151
    28  H    4.297417   3.197886   3.018271   5.481610   2.153001
    29  H    4.297418   3.197888   3.018270   5.481614   2.153002
    30  H    3.133917   5.354737   2.175112   7.006496   3.070025
    31  H    3.133917   5.354737   2.175111   7.006496   3.070025
    32  H    4.073658   3.914219   4.941133   2.157614   4.665371
    33  H    5.708797   3.382285   6.069319   1.086600   5.241727
    34  C    4.923131   8.867501   6.010769   8.839733   7.243930
    35  O    5.286752   9.018535   6.536498   8.661487   7.656894
    36  O    5.980147   9.994860   6.912881  10.113777   8.214344
    37  H    6.741633  10.709370   7.759458  10.654458   9.031096
                   21         22         23         24         25
    21  H    0.000000
    22  H    2.320904   0.000000
    23  C    5.162254   7.434927   0.000000
    24  C    5.463976   7.594594   3.807480   0.000000
    25  C    5.888426   8.168992   2.647560   1.556688   0.000000
    26  H    6.582754   8.855915   3.010715   2.207140   1.095201
    27  H    6.582749   8.855910   3.010715   2.207139   1.095201
    28  H    5.998175   8.038636   4.520984   1.095439   2.212264
    29  H    5.998177   8.038637   4.520988   1.095438   2.212264
    30  H    5.040827   6.313527   6.630397   3.624054   5.089024
    31  H    5.040826   6.313527   6.630397   3.624055   5.089023
    32  H    2.911073   4.683710   3.440722   5.779571   5.399964
    33  H    5.154843   7.124884   2.155554   5.788568   4.784578
    34  C    4.416960   2.679780   9.484795   8.655969   9.608257
    35  O    4.305437   2.134529   9.467545   9.127844   9.921096
    36  O    5.703755   4.013371  10.693797   9.557313  10.624981
    37  H    6.232324   4.284667  11.327280  10.409711  11.418713
                   26         27         28         29         30
    26  H    0.000000
    27  H    1.756455   0.000000
    28  H    2.365964   2.946280   0.000000
    29  H    2.946278   2.365964   1.755112   0.000000
    30  H    5.536956   5.809212   3.355796   3.787888   0.000000
    31  H    5.809215   5.536951   3.787892   3.355795   1.758719
    32  H    5.953236   5.953233   6.469960   6.469964   6.956290
    33  H    5.110099   5.110098   6.498240   6.498245   8.077837
    34  C   10.298864  10.298858   8.921139   8.921140   6.287240
    35  O   10.614662  10.607107   9.468481   9.460024   7.115872
    36  O   11.301965  11.311018   9.743629   9.754128   6.833151
    37  H   12.098157  12.105777  10.622466  10.631144   7.776423
                   31         32         33         34         35
    31  H    0.000000
    32  H    6.956290   0.000000
    33  H    8.077837   2.463909   0.000000
    34  C    6.287240   7.186359   9.548812   0.000000
    35  O    7.104591   6.817903   9.256400   1.216525   0.000000
    36  O    6.848144   8.511573  10.852894   1.341622   2.236444
    37  H    7.788296   8.929040  11.329174   1.846310   2.226369
                   36         37
    36  O    0.000000
    37  H    0.980267   0.000000
 Stoichiometry    C19H14N2O2
 Framework group  C1[X(C19H14N2O2)]
 Deg. of freedom   105
 Full point group                 C1      NOp   1
 Largest Abelian subgroup         C1      NOp   1
 Largest concise Abelian subgroup C1      NOp   1
                         Standard orientation:                         
 ---------------------------------------------------------------------
 Center     Atomic      Atomic             Coordinates (Angstroms)
 Number     Number       Type             X           Y           Z
 ---------------------------------------------------------------------
      1          7           0       -1.750760   -1.824522   -0.000331
      2          6           0       -2.196430   -0.560405    0.001861
      3          6           0       -3.526151   -0.036695    0.003657
      4          6           0       -3.737607    1.336628    0.005826
      5          1           0       -4.766709    1.690637    0.007142
      6          6           0       -2.701875    2.305861    0.006439
      7          1           0       -2.940997    3.364904    0.008171
      8          6           0       -1.400938    1.834247    0.004741
      9          6           0       -0.046927    2.531907    0.004711
     10          6           0       -1.194728    0.447836    0.002557
     11          6           0        2.812319   -0.089220   -0.001335
     12          6           0        2.683875   -2.493655   -0.004748
     13          6           0        2.021518   -1.254466   -0.002424
     14          7           0        0.657054   -1.080578   -0.001112
     15          1           0        5.940335   -1.412743   -0.005694
     16          6           0        0.185380    0.169013    0.001079
     17          6           0        4.213424   -0.114281   -0.002458
     18          6           0        0.939478    1.380663    0.002264
     19          6           0        4.074115   -2.514300   -0.005856
     20          6           0        2.298634    1.243194    0.001009
     21          1           0       -0.287344   -1.774656   -0.001393
     22          1           0       -2.482931   -2.526982   -0.000789
     23          6           0        4.856517   -1.339289   -0.004746
     24          6           0        3.459251    2.202535    0.001509
     25          6           0        4.731359    1.305308   -0.000785
     26          1           0        5.356438    1.497926   -0.879215
     27          1           0        5.357794    1.495360    0.877238
     28          1           0        3.420733    2.858373   -0.875063
     29          1           0        3.422093    2.855815    0.880047
     30          1           0        0.080049    3.176490   -0.873807
     31          1           0        0.081413    3.173921    0.884909
     32          1           0        2.115133   -3.418563   -0.005658
     33          1           0        4.578353   -3.476818   -0.007653
     34          6           0       -4.618469   -0.908130    0.003231
     35          8           0       -4.578376   -2.123204    0.047032
     36          8           0       -5.780517   -0.239991   -0.053208
     37          1           0       -6.463743   -0.942910   -0.047926
 ---------------------------------------------------------------------
 Rotational constants (GHZ):           0.6624802           0.1523686           0.1241665
 Leave Link  202 at Tue Feb 11 11:44:42 2025, MaxMem=  8375500800 cpu:               1.2 elap:               0.1
 (Enter /gpfslocalsup/prod/g16/rev-C01/g16/l301.exe)
 Standard basis: 6-31+G(d,p) (6D, 7F)
 Ernie: Thresh=  0.10000D-02 Tol=  0.10000D-05 Strict=F.
 There are   507 symmetry adapted cartesian basis functions of A   symmetry.
 There are   507 symmetry adapted basis functions of A   symmetry.
   507 basis functions,   834 primitive gaussians,   507 cartesian basis functions
    79 alpha electrons       79 beta electrons
       nuclear repulsion energy      1791.8077942654 Hartrees.
 IExCor= 1009 DFT=T Ex+Corr=PBE1PBE ExCW=0 ScaHFX=  0.250000
 ScaDFX=  0.750000  0.750000  1.000000  1.000000 ScalE2=  1.000000  1.000000
 IRadAn=      5 IRanWt=     -1 IRanGd=            0 ICorTp=0 IEmpDi=  4
 NAtoms=   37 NActive=   37 NUniq=   37 SFac= 1.00D+00 NAtFMM=   60 NAOKFM=F Big=F
 Integral buffers will be    131072 words long.
 Raffenetti 2 integral format.
 Two-electron integral symmetry is turned on.
 Force inversion solution in PCM.
 ------------------------------------------------------------------------------
 Polarizable Continuum Model (PCM)
 =================================
 Model                : PCM.
 Atomic radii         : UFF (Universal Force Field).
 Polarization charges : Total charges.
 Charge compensation  : None.
 Solution method      : Matrix inversion.
 Cavity type          : Scaled VdW (van der Waals Surface) (Alpha=1.100).
 Cavity algorithm     : GePol (No added spheres)
                        Default sphere list used, NSphG=   37.
                        Lebedev-Laikov grids with approx.  5.0 points / Ang**2.
                        Smoothing algorithm: York/Karplus (Gamma=1.0000).
                        Polarization charges: spherical gaussians, with
                                              point-specific exponents (IZeta= 3).
                        Self-potential: point-specific (ISelfS= 7).
                        Self-field    : sphere-specific E.n sum rule (ISelfD= 2).
 1st derivatives      : Analytical E(r).r(x)/FMM algorithm (CHGder, D1EAlg=3).
                        Cavity 1st derivative terms included.
 2nd derivatives      : Analytical E(r).r(xy)/FMM algorithm (CHGder, D2EAlg=3).
                        Cavity 2nd derivative terms included.
 Solvent              : Acetonitrile, Eps=  35.688000 Eps(inf)=   1.806874
 ------------------------------------------------------------------------------
 GePol: Number of generator spheres                  =      37
 GePol: Total number of spheres                      =      37
 GePol: Number of exposed spheres                    =      37 (100.00%)
 GePol: Number of points                             =    2863
 GePol: Average weight of points                     =       0.12
 GePol: Minimum weight of points                     =   0.85D-11
 GePol: Maximum weight of points                     =    0.20577
 GePol: Number of points with low weight             =     213
 GePol: Fraction of low-weight points (<1% of avg)   =       7.44%
 GePol: Cavity surface area                          =    348.461 Ang**2
 GePol: Cavity volume                                =    387.686 Ang**3
 Leave Link  301 at Tue Feb 11 11:44:42 2025, MaxMem=  8375500800 cpu:               6.1 elap:               0.2
 (Enter /gpfslocalsup/prod/g16/rev-C01/g16/l302.exe)
 NPDir=0 NMtPBC=     1 NCelOv=     1 NCel=       1 NClECP=     1 NCelD=      1
         NCelK=      1 NCelE2=     1 NClLst=     1 CellRange=     0.0.
 One-electron integrals computed using PRISM.
 One-electron integral symmetry used in STVInt
 NBasis=   507 RedAO= T EigKep=  1.13D-06  NBF=   507
 NBsUse=   497 1.00D-06 EigRej=  9.73D-07 NBFU=   497
 Precomputing XC quadrature grid using
 IXCGrd= 4 IRadAn=           5 IRanWt=          -1 IRanGd=           0 AccXCQ= 0.00D+00.
 Generated NRdTot=       0 NPtTot=           0 NUsed=           0 NTot=          32
 NSgBfM=   503   503   503   503   503 MxSgAt=    37 MxSgA2=    37.
 Leave Link  302 at Tue Feb 11 11:44:44 2025, MaxMem=  8375500800 cpu:              25.5 elap:               0.7
 (Enter /gpfslocalsup/prod/g16/rev-C01/g16/l303.exe)
 DipDrv:  MaxL=1.
 Leave Link  303 at Tue Feb 11 11:44:44 2025, MaxMem=  8375500800 cpu:               3.0 elap:               0.2
 (Enter /gpfslocalsup/prod/g16/rev-C01/g16/l401.exe)
 ExpMin= 4.38D-02 ExpMax= 5.48D+03 ExpMxC= 8.25D+02 IAcc=3 IRadAn=         5 AccDes= 0.00D+00
 Harris functional with IExCor= 1009 and IRadAn=       5 diagonalized for initial guess.
 HarFok:  IExCor= 1009 AccDes= 0.00D+00 IRadAn=         5 IDoV= 1 UseB2=F ITyADJ=14
 ICtDFT=  3500011 ScaDFX=  1.000000  1.000000  1.000000  1.000000
 FoFCou: FMM=F IPFlag=           0 FMFlag=      100000 FMFlg1=           0
         NFxFlg=           0 DoJE=T BraDBF=F KetDBF=T FulRan=T
         wScrn=  0.000000 ICntrl=       500 IOpCl=  0 I1Cent=   200000004 NGrid=           0
         NMat0=    1 NMatS0=      1 NMatT0=    0 NMatD0=    1 NMtDS0=    0 NMtDT0=    0
 Petite list used in FoFCou.
 Harris En= -991.573055793484    
 JPrj=0 DoOrth=F DoCkMO=F.
 Leave Link  401 at Tue Feb 11 11:44:46 2025, MaxMem=  8375500800 cpu:              41.4 elap:               1.1
 (Enter /gpfslocalsup/prod/g16/rev-C01/g16/l502.exe)
 Integral symmetry usage will be decided dynamically.
 Closed shell SCF:
 Using DIIS extrapolation, IDIIS=  1040.
 NGot=  8375500800 LenX=  8374960552 LenY=  8374702996
 Requested convergence on RMS density matrix=1.00D-08 within 128 cycles.
 Requested convergence on MAX density matrix=1.00D-06.
 Requested convergence on             energy=1.00D-06.
 No special actions if energy rises.
 Fock matrices will be formed incrementally for  20 cycles.

 Cycle   1  Pass 1  IDiag  1:
 FoFJK:  IHMeth= 1 ICntrl=       0 DoSepK=F KAlg= 0 I1Cent=           0 FoldK=F
 IRaf= 790000000 NMat=       1 IRICut=       1 DoRegI=T DoRafI=F ISym2E= 0 IDoP0=0 IntGTp=1.
 FoFCou: FMM=F IPFlag=           0 FMFlag=      100000 FMFlg1=           0
         NFxFlg=           0 DoJE=F BraDBF=F KetDBF=F FulRan=T
         wScrn=  0.000000 ICntrl=         0 IOpCl=  0 I1Cent=           0 NGrid=           0
         NMat0=    1 NMatS0=      1 NMatT0=    0 NMatD0=    1 NMtDS0=    0 NMtDT0=    0
 Symmetry not used in FoFCou.
 Inv3:  Mode=1 IEnd=    24590307.
 Iteration    1 A*A^-1 deviation from unit magnitude is 3.22D-15 for   1076.
 Iteration    1 A*A^-1 deviation from orthogonality  is 1.89D-15 for   2751    383.
 Iteration    1 A^-1*A deviation from unit magnitude is 3.22D-15 for   1076.
 Iteration    1 A^-1*A deviation from orthogonality  is 2.73D-15 for   1020     81.
 E= -991.003372963109    
 DIIS: error= 2.04D-02 at cycle   1 NSaved=   1.
 NSaved= 1 IEnMin= 1 EnMin= -991.003372963109     IErMin= 1 ErrMin= 2.04D-02
 ErrMax= 2.04D-02  0.00D+00 EMaxC= 1.00D-01 BMatC= 4.19D-01 BMatP= 4.19D-01
 IDIUse=3 WtCom= 7.96D-01 WtEn= 2.04D-01
 Coeff-Com:  0.100D+01
 Coeff-En:   0.100D+01
 Coeff:      0.100D+01
 Gap=     0.108 Goal=   None    Shift=    0.000
 GapD=    0.108 DampG=1.000 DampE=0.500 DampFc=0.5000 IDamp=-1.
 Damping current iteration by 5.00D-01
 RMSDP=3.56D-02 MaxDP=2.47D+00              OVMax= 2.10D-01

 Cycle   2  Pass 1  IDiag  1:
 RMSU=  8.06D-03    CP:  7.92D-01
 E= -991.173962391591     Delta-E=       -0.170589428483 Rises=F Damp=T
 DIIS: error= 6.61D-03 at cycle   2 NSaved=   2.
 NSaved= 2 IEnMin= 2 EnMin= -991.173962391591     IErMin= 2 ErrMin= 6.61D-03
 ErrMax= 6.61D-03  0.00D+00 EMaxC= 1.00D-01 BMatC= 4.20D-02 BMatP= 4.19D-01
 IDIUse=3 WtCom= 9.34D-01 WtEn= 6.61D-02
 Coeff-Com:  0.415D-01 0.958D+00
 Coeff-En:   0.746D-01 0.925D+00
 Coeff:      0.437D-01 0.956D+00
 Gap=     0.146 Goal=   None    Shift=    0.000
 RMSDP=1.64D-02 MaxDP=1.58D+00 DE=-1.71D-01 OVMax= 1.66D-01

 Cycle   3  Pass 1  IDiag  1:
 RMSU=  7.67D-03    CP:  6.06D-01  6.18D-01
 E= -991.354070519823     Delta-E=       -0.180108128232 Rises=F Damp=F
 DIIS: error= 6.28D-03 at cycle   3 NSaved=   3.
 NSaved= 3 IEnMin= 3 EnMin= -991.354070519823     IErMin= 3 ErrMin= 6.28D-03
 ErrMax= 6.28D-03  0.00D+00 EMaxC= 1.00D-01 BMatC= 4.11D-02 BMatP= 4.20D-02
 IDIUse=3 WtCom= 9.37D-01 WtEn= 6.28D-02
 Coeff-Com: -0.630D-01 0.523D+00 0.540D+00
 Coeff-En:   0.000D+00 0.000D+00 0.100D+01
 Coeff:     -0.590D-01 0.490D+00 0.569D+00
 Gap=     0.130 Goal=   None    Shift=    0.000
 RMSDP=3.25D-03 MaxDP=1.63D-01 DE=-1.80D-01 OVMax= 6.34D-02

 Cycle   4  Pass 1  IDiag  1:
 RMSU=  3.01D-03    CP:  5.96D-01  7.00D-01  9.11D-01
 E= -991.384275314581     Delta-E=       -0.030204794758 Rises=F Damp=F
 DIIS: error= 3.20D-03 at cycle   4 NSaved=   4.
 NSaved= 4 IEnMin= 4 EnMin= -991.384275314581     IErMin= 4 ErrMin= 3.20D-03
 ErrMax= 3.20D-03  0.00D+00 EMaxC= 1.00D-01 BMatC= 7.59D-03 BMatP= 4.11D-02
 IDIUse=3 WtCom= 9.68D-01 WtEn= 3.20D-02
 Coeff-Com: -0.336D-01 0.117D+00 0.332D+00 0.585D+00
 Coeff-En:   0.000D+00 0.000D+00 0.174D+00 0.826D+00
 Coeff:     -0.325D-01 0.113D+00 0.327D+00 0.592D+00
 Gap=     0.131 Goal=   None    Shift=    0.000
 RMSDP=1.27D-03 MaxDP=8.11D-02 DE=-3.02D-02 OVMax= 2.17D-02

 Cycle   5  Pass 1  IDiag  1:
 RMSU=  5.92D-04    CP:  5.95D-01  6.86D-01  9.38D-01  6.37D-01
 E= -991.390786980994     Delta-E=       -0.006511666413 Rises=F Damp=F
 DIIS: error= 8.16D-04 at cycle   5 NSaved=   5.
 NSaved= 5 IEnMin= 5 EnMin= -991.390786980994     IErMin= 5 ErrMin= 8.16D-04
 ErrMax= 8.16D-04  0.00D+00 EMaxC= 1.00D-01 BMatC= 4.22D-04 BMatP= 7.59D-03
 IDIUse=3 WtCom= 9.92D-01 WtEn= 8.16D-03
 Coeff-Com: -0.141D-01 0.326D-01 0.144D+00 0.319D+00 0.519D+00
 Coeff-En:   0.000D+00 0.000D+00 0.000D+00 0.000D+00 0.100D+01
 Coeff:     -0.140D-01 0.324D-01 0.142D+00 0.316D+00 0.523D+00
 Gap=     0.131 Goal=   None    Shift=    0.000
 RMSDP=3.57D-04 MaxDP=2.33D-02 DE=-6.51D-03 OVMax= 4.80D-03

 Cycle   6  Pass 1  IDiag  1:
 RMSU=  2.36D-04    CP:  5.92D-01  6.93D-01  9.34D-01  6.13D-01  8.55D-01
 E= -991.391126712467     Delta-E=       -0.000339731473 Rises=F Damp=F
 DIIS: error= 2.08D-04 at cycle   6 NSaved=   6.
 NSaved= 6 IEnMin= 6 EnMin= -991.391126712467     IErMin= 6 ErrMin= 2.08D-04
 ErrMax= 2.08D-04  0.00D+00 EMaxC= 1.00D-01 BMatC= 2.19D-05 BMatP= 4.22D-04
 IDIUse=3 WtCom= 9.98D-01 WtEn= 2.08D-03
 Coeff-Com: -0.410D-02 0.700D-02 0.385D-01 0.960D-01 0.248D+00 0.614D+00
 Coeff-En:   0.000D+00 0.000D+00 0.000D+00 0.000D+00 0.000D+00 0.100D+01
 Coeff:     -0.410D-02 0.699D-02 0.384D-01 0.958D-01 0.248D+00 0.615D+00
 Gap=     0.131 Goal=   None    Shift=    0.000
 RMSDP=9.36D-05 MaxDP=4.80D-03 DE=-3.40D-04 OVMax= 1.48D-03

 Cycle   7  Pass 1  IDiag  1:
 RMSU=  4.76D-05    CP:  5.92D-01  6.91D-01  9.37D-01  6.26D-01  8.28D-01
                    CP:  7.37D-01
 E= -991.391145102211     Delta-E=       -0.000018389744 Rises=F Damp=F
 DIIS: error= 3.72D-05 at cycle   7 NSaved=   7.
 NSaved= 7 IEnMin= 7 EnMin= -991.391145102211     IErMin= 7 ErrMin= 3.72D-05
 ErrMax= 3.72D-05  0.00D+00 EMaxC= 1.00D-01 BMatC= 2.15D-06 BMatP= 2.19D-05
 IDIUse=1 WtCom= 1.00D+00 WtEn= 0.00D+00
 Coeff-Com: -0.149D-02 0.199D-02 0.123D-01 0.330D-01 0.107D+00 0.337D+00
 Coeff-Com:  0.510D+00
 Coeff:     -0.149D-02 0.199D-02 0.123D-01 0.330D-01 0.107D+00 0.337D+00
 Coeff:      0.510D+00
 Gap=     0.131 Goal=   None    Shift=    0.000
 RMSDP=2.25D-05 MaxDP=1.41D-03 DE=-1.84D-05 OVMax= 4.15D-04

 Cycle   8  Pass 1  IDiag  1:
 RMSU=  1.58D-05    CP:  5.92D-01  6.90D-01  9.38D-01  6.27D-01  8.19D-01
                    CP:  7.46D-01  8.08D-01
 E= -991.391147051215     Delta-E=       -0.000001949003 Rises=F Damp=F
 DIIS: error= 1.05D-05 at cycle   8 NSaved=   8.
 NSaved= 8 IEnMin= 8 EnMin= -991.391147051215     IErMin= 8 ErrMin= 1.05D-05
 ErrMax= 1.05D-05  0.00D+00 EMaxC= 1.00D-01 BMatC= 1.26D-07 BMatP= 2.15D-06
 IDIUse=1 WtCom= 1.00D+00 WtEn= 0.00D+00
 Coeff-Com: -0.157D-03 0.667D-04 0.410D-03 0.187D-02 0.168D-01 0.730D-01
 Coeff-Com:  0.212D+00 0.697D+00
 Coeff:     -0.157D-03 0.667D-04 0.410D-03 0.187D-02 0.168D-01 0.730D-01
 Coeff:      0.212D+00 0.697D+00
 Gap=     0.131 Goal=   None    Shift=    0.000
 RMSDP=7.87D-06 MaxDP=4.94D-04 DE=-1.95D-06 OVMax= 1.53D-04

 Cycle   9  Pass 1  IDiag  1:
 RMSU=  5.13D-06    CP:  5.92D-01  6.90D-01  9.37D-01  6.27D-01  8.24D-01
                    CP:  7.56D-01  8.54D-01  8.99D-01
 E= -991.391147146935     Delta-E=       -0.000000095720 Rises=F Damp=F
 DIIS: error= 7.16D-06 at cycle   9 NSaved=   9.
 NSaved= 9 IEnMin= 9 EnMin= -991.391147146935     IErMin= 9 ErrMin= 7.16D-06
 ErrMax= 7.16D-06  0.00D+00 EMaxC= 1.00D-01 BMatC= 4.32D-08 BMatP= 1.26D-07
 IDIUse=1 WtCom= 1.00D+00 WtEn= 0.00D+00
 Coeff-Com:  0.789D-04-0.187D-03-0.126D-02-0.301D-02-0.282D-02 0.224D-02
 Coeff-Com:  0.528D-01 0.416D+00 0.536D+00
 Coeff:      0.789D-04-0.187D-03-0.126D-02-0.301D-02-0.282D-02 0.224D-02
 Coeff:      0.528D-01 0.416D+00 0.536D+00
 Gap=     0.131 Goal=   None    Shift=    0.000
 RMSDP=3.50D-06 MaxDP=2.17D-04 DE=-9.57D-08 OVMax= 6.59D-05

 Cycle  10  Pass 1  IDiag  1:
 RMSU=  1.92D-06    CP:  5.92D-01  6.90D-01  9.38D-01  6.27D-01  8.25D-01
                    CP:  7.57D-01  8.65D-01  9.75D-01  7.29D-01
 E= -991.391147186777     Delta-E=       -0.000000039843 Rises=F Damp=F
 DIIS: error= 1.40D-06 at cycle  10 NSaved=  10.
 NSaved=10 IEnMin=10 EnMin= -991.391147186777     IErMin=10 ErrMin= 1.40D-06
 ErrMax= 1.40D-06  0.00D+00 EMaxC= 1.00D-01 BMatC= 2.11D-09 BMatP= 4.32D-08
 IDIUse=1 WtCom= 1.00D+00 WtEn= 0.00D+00
 Coeff-Com:  0.448D-04-0.872D-04-0.612D-03-0.156D-02-0.228D-02-0.328D-02
 Coeff-Com:  0.785D-02 0.151D+00 0.264D+00 0.585D+00
 Coeff:      0.448D-04-0.872D-04-0.612D-03-0.156D-02-0.228D-02-0.328D-02
 Coeff:      0.785D-02 0.151D+00 0.264D+00 0.585D+00
 Gap=     0.131 Goal=   None    Shift=    0.000
 RMSDP=8.10D-07 MaxDP=3.93D-05 DE=-3.98D-08 OVMax= 1.76D-05

 Cycle  11  Pass 1  IDiag  1:
 RMSU=  5.25D-07    CP:  5.92D-01  6.90D-01  9.38D-01  6.27D-01  8.25D-01
                    CP:  7.58D-01  8.64D-01  9.83D-01  7.56D-01  7.85D-01
 E= -991.391147188594     Delta-E=       -0.000000001817 Rises=F Damp=F
 DIIS: error= 6.70D-07 at cycle  11 NSaved=  11.
 NSaved=11 IEnMin=11 EnMin= -991.391147188594     IErMin=11 ErrMin= 6.70D-07
 ErrMax= 6.70D-07  0.00D+00 EMaxC= 1.00D-01 BMatC= 4.16D-10 BMatP= 2.11D-09
 IDIUse=1 WtCom= 1.00D+00 WtEn= 0.00D+00
 Coeff-Com:  0.125D-04-0.167D-04-0.137D-03-0.399D-03-0.882D-03-0.260D-02
 Coeff-Com: -0.786D-02 0.629D-02 0.563D-01 0.339D+00 0.611D+00
 Coeff:      0.125D-04-0.167D-04-0.137D-03-0.399D-03-0.882D-03-0.260D-02
 Coeff:     -0.786D-02 0.629D-02 0.563D-01 0.339D+00 0.611D+00
 Gap=     0.131 Goal=   None    Shift=    0.000
 RMSDP=3.36D-07 MaxDP=1.38D-05 DE=-1.82D-09 OVMax= 8.91D-06

 Cycle  12  Pass 1  IDiag  1:
 RMSU=  1.88D-07    CP:  5.92D-01  6.90D-01  9.38D-01  6.27D-01  8.25D-01
                    CP:  7.58D-01  8.67D-01  9.92D-01  7.52D-01  8.44D-01
                    CP:  9.80D-01
 E= -991.391147189014     Delta-E=       -0.000000000419 Rises=F Damp=F
 DIIS: error= 1.55D-07 at cycle  12 NSaved=  12.
 NSaved=12 IEnMin=12 EnMin= -991.391147189014     IErMin=12 ErrMin= 1.55D-07
 ErrMax= 1.55D-07  0.00D+00 EMaxC= 1.00D-01 BMatC= 1.77D-11 BMatP= 4.16D-10
 IDIUse=1 WtCom= 1.00D+00 WtEn= 0.00D+00
 Coeff-Com:  0.124D-06 0.258D-05 0.414D-05-0.107D-04-0.105D-03-0.600D-03
 Coeff-Com: -0.407D-02-0.106D-01-0.970D-03 0.704D-01 0.221D+00 0.725D+00
 Coeff:      0.124D-06 0.258D-05 0.414D-05-0.107D-04-0.105D-03-0.600D-03
 Coeff:     -0.407D-02-0.106D-01-0.970D-03 0.704D-01 0.221D+00 0.725D+00
 Gap=     0.131 Goal=   None    Shift=    0.000
 RMSDP=9.95D-08 MaxDP=5.86D-06 DE=-4.19D-10 OVMax= 4.29D-06

 Cycle  13  Pass 1  IDiag  1:
 RMSU=  6.49D-08    CP:  5.92D-01  6.90D-01  9.38D-01  6.27D-01  8.25D-01
                    CP:  7.58D-01  8.66D-01  9.93D-01  7.58D-01  8.56D-01
                    CP:  1.02D+00  9.18D-01
 E= -991.391147189070     Delta-E=       -0.000000000057 Rises=F Damp=F
 DIIS: error= 6.01D-08 at cycle  13 NSaved=  13.
 NSaved=13 IEnMin=13 EnMin= -991.391147189070     IErMin=13 ErrMin= 6.01D-08
 ErrMax= 6.01D-08  0.00D+00 EMaxC= 1.00D-01 BMatC= 5.63D-12 BMatP= 1.77D-11
 IDIUse=1 WtCom= 1.00D+00 WtEn= 0.00D+00
 Coeff-Com: -0.148D-05 0.359D-05 0.185D-04 0.410D-04 0.513D-04-0.192D-04
 Coeff-Com: -0.150D-02-0.655D-02-0.608D-02 0.286D-02 0.567D-01 0.422D+00
 Coeff-Com:  0.532D+00
 Coeff:     -0.148D-05 0.359D-05 0.185D-04 0.410D-04 0.513D-04-0.192D-04
 Coeff:     -0.150D-02-0.655D-02-0.608D-02 0.286D-02 0.567D-01 0.422D+00
 Coeff:      0.532D+00
 Gap=     0.131 Goal=   None    Shift=    0.000
 RMSDP=4.29D-08 MaxDP=4.08D-06 DE=-5.68D-11 OVMax= 7.50D-07

 Cycle  14  Pass 1  IDiag  1:
 RMSU=  2.09D-08    CP:  5.92D-01  6.90D-01  9.38D-01  6.27D-01  8.25D-01
                    CP:  7.58D-01  8.66D-01  9.93D-01  7.58D-01  8.54D-01
                    CP:  1.04D+00  9.95D-01  6.33D-01
 E= -991.391147189035     Delta-E=        0.000000000036 Rises=F Damp=F
 DIIS: error= 1.80D-08 at cycle  14 NSaved=  14.
 NSaved=14 IEnMin=13 EnMin= -991.391147189070     IErMin=14 ErrMin= 1.80D-08
 ErrMax= 1.80D-08  0.00D+00 EMaxC= 1.00D-01 BMatC= 3.79D-13 BMatP= 5.63D-12
 IDIUse=1 WtCom= 1.00D+00 WtEn= 0.00D+00
 Coeff-Com: -0.666D-06 0.136D-05 0.777D-05 0.195D-04 0.312D-04 0.410D-04
 Coeff-Com: -0.320D-03-0.219D-02-0.306D-02-0.812D-02 0.742D-04 0.132D+00
 Coeff-Com:  0.248D+00 0.633D+00
 Coeff:     -0.666D-06 0.136D-05 0.777D-05 0.195D-04 0.312D-04 0.410D-04
 Coeff:     -0.320D-03-0.219D-02-0.306D-02-0.812D-02 0.742D-04 0.132D+00
 Coeff:      0.248D+00 0.633D+00
 Gap=     0.131 Goal=   None    Shift=    0.000
 RMSDP=1.25D-08 MaxDP=4.86D-07 DE= 3.57D-11 OVMax= 3.53D-07

 Cycle  15  Pass 1  IDiag  1:
 RMSU=  1.02D-08    CP:  5.92D-01  6.90D-01  9.38D-01  6.27D-01  8.25D-01
                    CP:  7.58D-01  8.66D-01  9.93D-01  7.57D-01  8.53D-01
                    CP:  1.04D+00  9.99D-01  7.00D-01  1.00D+00
 E= -991.391147189038     Delta-E=       -0.000000000003 Rises=F Damp=F
 DIIS: error= 7.33D-09 at cycle  15 NSaved=  15.
 NSaved=15 IEnMin=13 EnMin= -991.391147189070     IErMin=15 ErrMin= 7.33D-09
 ErrMax= 7.33D-09  0.00D+00 EMaxC= 1.00D-01 BMatC= 6.88D-14 BMatP= 3.79D-13
 IDIUse=1 WtCom= 1.00D+00 WtEn= 0.00D+00
 Coeff-Com: -0.112D-06 0.140D-06 0.921D-06 0.311D-05 0.863D-05 0.273D-04
 Coeff-Com:  0.823D-04 0.392D-04-0.310D-03-0.378D-02-0.789D-02-0.636D-03
 Coeff-Com:  0.240D-01 0.327D+00 0.662D+00
 Coeff:     -0.112D-06 0.140D-06 0.921D-06 0.311D-05 0.863D-05 0.273D-04
 Coeff:      0.823D-04 0.392D-04-0.310D-03-0.378D-02-0.789D-02-0.636D-03
 Coeff:      0.240D-01 0.327D+00 0.662D+00
 Gap=     0.131 Goal=   None    Shift=    0.000
 RMSDP=4.66D-09 MaxDP=1.90D-07 DE=-2.96D-12 OVMax= 2.27D-07

 Error on total polarization charges =  0.01953
 SCF Done:  E(RPBE1PBE) =  -991.391147189     A.U. after   15 cycles
            NFock= 15  Conv=0.47D-08     -V/T= 2.0083
 KE= 9.831821759014D+02 PE=-5.889098352133D+03 EE= 2.122717234777D+03
 Leave Link  502 at Tue Feb 11 11:45:35 2025, MaxMem=  8375500800 cpu:            1886.0 elap:              48.6
 (Enter /gpfslocalsup/prod/g16/rev-C01/g16/l801.exe)
 DoSCS=F DFT=T ScalE2(SS,OS)=  1.000000  1.000000
 Range of M.O.s used for correlation:     1   497
 NBasis=   507 NAE=    79 NBE=    79 NFC=     0 NFV=     0
 NROrb=    497 NOA=    79 NOB=    79 NVA=   418 NVB=   418

 **** Warning!!: The largest alpha MO coefficient is  0.12474814D+03

 Leave Link  801 at Tue Feb 11 11:45:35 2025, MaxMem=  8375500800 cpu:               1.5 elap:               0.1
 (Enter /gpfslocalsup/prod/g16/rev-C01/g16/l1101.exe)
 Using compressed storage, NAtomX=    37.
 Will process     38 centers per pass.
 Leave Link 1101 at Tue Feb 11 11:45:36 2025, MaxMem=  8375500800 cpu:              32.9 elap:               0.9
 (Enter /gpfslocalsup/prod/g16/rev-C01/g16/l1102.exe)
 Symmetrizing basis deriv contribution to polar:
 IMax=3 JMax=2 DiffMx= 0.00D+00
 Leave Link 1102 at Tue Feb 11 11:45:37 2025, MaxMem=  8375500800 cpu:               2.8 elap:               0.2
 (Enter /gpfslocalsup/prod/g16/rev-C01/g16/l1110.exe)
 Forming Gx(P) for the SCF density, NAtomX=    37.
 Integral derivatives from FoFJK, PRISM(SPDF).
 Do as many integral derivatives as possible in FoFJK.
 G2DrvN: MDV=    8375496853.
 G2DrvN: will do    38 centers at a time, making    1 passes.
 Calling FoFCou, ICntrl=  3107 FMM=F I1Cent=   0 AccDes= 0.00D+00.
 FoFJK:  IHMeth= 1 ICntrl=    3107 DoSepK=F KAlg= 0 I1Cent=           0 FoldK=F
 IRaf=         0 NMat=       1 IRICut=       1 DoRegI=T DoRafI=F ISym2E= 0 IDoP0=0 IntGTp=1.
 FoFCou: FMM=F IPFlag=           0 FMFlag=      100000 FMFlg1=           0
         NFxFlg=           0 DoJE=F BraDBF=F KetDBF=F FulRan=T
         wScrn=  0.000000 ICntrl=      3107 IOpCl=  0 I1Cent=           0 NGrid=           0
         NMat0=    1 NMatS0=      1 NMatT0=    0 NMatD0=    1 NMtDS0=    0 NMtDT0=    0
 Symmetry not used in FoFCou.
 NEqPCM:  Using equilibrium solvation (IEInf=0, Eps=  35.6880, EpsInf=   1.8069)
 G2PCM: DoFxE=T DoFxN=T DoGrad=T DoDP/DQ/DG/TGxP=FFFF NFrqRd=   0 IEInf=0 SqF1=F DoCFld=F IF1Alg=4.
 GePol: Maximum number of non-zero 1st derivatives   =     191
 End of G2Drv F.D. properties file   721 does not exist.
 End of G2Drv F.D. properties file   722 does not exist.
 End of G2Drv F.D. properties file   788 does not exist.
 Leave Link 1110 at Tue Feb 11 11:46:44 2025, MaxMem=  8375500800 cpu:            2657.2 elap:              66.9
 (Enter /gpfslocalsup/prod/g16/rev-C01/g16/l1002.exe)
 Minotr:  Closed shell wavefunction.
          IDoAtm=1111111111111111111111111111111111111
 NEqPCM:  Using equilibrium solvation (IEInf=0, Eps=  35.6880, EpsInf=   1.8069)
          Direct CPHF calculation.
          Differentiating once with respect to nuclear coordinates.
          Requested convergence is 1.0D-08 RMS, and 1.0D-07 maximum.
          Secondary convergence is 1.0D-12 RMS, and 1.0D-12 maximum.
          NewPWx=T KeepS1=F KeepF1=F KeepIn=T MapXYZ=F SortEE=F KeepMc=T.
        11440 words used for storage of precomputed grid.
 Two-electron integrals replicated using symmetry.
          MDV=    8375500800 using IRadAn=       1.
          Solving linear equations simultaneously, MaxMat=     360.
 FoF2E skips out because all densities are zero.
 CalDSu exits because no D1Ps are significant.
 FoFJK:  IHMeth= 1 ICntrl=       0 DoSepK=F KAlg= 0 I1Cent=           0 FoldK=F
 IRaf= 790000000 NMat=     111 IRICut=     277 DoRegI=T DoRafI=T ISym2E= 2 IDoP0=0 IntGTp=1.
          There are   114 degrees of freedom in the 1st order CPHF.  IDoFFX=6 NUNeed=     0.
    108 vectors produced by pass  0 Test12= 3.30D-14 1.00D-09 XBig12= 2.77D-01 1.18D-01.
 AX will form   108 AO Fock derivatives at one time.
    108 vectors produced by pass  1 Test12= 3.30D-14 1.00D-09 XBig12= 7.07D-02 7.23D-02.
    108 vectors produced by pass  2 Test12= 3.30D-14 1.00D-09 XBig12= 5.53D-04 3.17D-03.
    108 vectors produced by pass  3 Test12= 3.30D-14 1.00D-09 XBig12= 3.35D-06 2.35D-04.
    108 vectors produced by pass  4 Test12= 3.30D-14 1.00D-09 XBig12= 1.21D-08 1.12D-05.
    108 vectors produced by pass  5 Test12= 3.30D-14 1.00D-09 XBig12= 2.37D-11 5.14D-07.
     55 vectors produced by pass  6 Test12= 3.30D-14 1.00D-09 XBig12= 3.64D-14 1.70D-08.
 InvSVY:  IOpt=1 It=  1 EMax= 8.33D-16
 Solved reduced A of dimension   703 with   114 vectors.
 End of Minotr F.D. properties file   721 does not exist.
 End of Minotr F.D. properties file   722 does not exist.
 End of Minotr F.D. properties file   788 does not exist.
 Leave Link 1002 at Tue Feb 11 11:51:20 2025, MaxMem=  8375500800 cpu:           10923.8 elap:             275.6
 (Enter /gpfslocalsup/prod/g16/rev-C01/g16/l601.exe)
 Copying SCF densities to generalized density rwf, IOpCl= 0 IROHF=0.

 **********************************************************************

            Population analysis using the SCF Density.

 **********************************************************************

 Orbital symmetries:
       Occupied  (A) (A) (A) (A) (A) (A) (A) (A) (A) (A) (A) (A)
                 (A) (A) (A) (A) (A) (A) (A) (A) (A) (A) (A) (A)
                 (A) (A) (A) (A) (A) (A) (A) (A) (A) (A) (A) (A)
                 (A) (A) (A) (A) (A) (A) (A) (A) (A) (A) (A) (A)
                 (A) (A) (A) (A) (A) (A) (A) (A) (A) (A) (A) (A)
                 (A) (A) (A) (A) (A) (A) (A) (A) (A) (A) (A) (A)
                 (A) (A) (A) (A) (A) (A) (A)
       Virtual   (A) (A) (A) (A) (A) (A) (A) (A) (A) (A) (A) (A)
                 (A) (A) (A) (A) (A) (A) (A) (A) (A) (A) (A) (A)
                 (A) (A) (A) (A) (A) (A) (A) (A) (A) (A) (A) (A)
                 (A) (A) (A) (A) (A) (A) (A) (A) (A) (A) (A) (A)
                 (A) (A) (A) (A) (A) (A) (A) (A) (A) (A) (A) (A)
                 (A) (A) (A) (A) (A) (A) (A) (A) (A) (A) (A) (A)
                 (A) (A) (A) (A) (A) (A) (A) (A) (A) (A) (A) (A)
                 (A) (A) (A) (A) (A) (A) (A) (A) (A) (A) (A) (A)
                 (A) (A) (A) (A) (A) (A) (A) (A) (A) (A) (A) (A)
                 (A) (A) (A) (A) (A) (A) (A) (A) (A) (A) (A) (A)
                 (A) (A) (A) (A) (A) (A) (A) (A) (A) (A) (A) (A)
                 (A) (A) (A) (A) (A) (A) (A) (A) (A) (A) (A) (A)
                 (A) (A) (A) (A) (A) (A) (A) (A) (A) (A) (A) (A)
                 (A) (A) (A) (A) (A) (A) (A) (A) (A) (A) (A) (A)
                 (A) (A) (A) (A) (A) (A) (A) (A) (A) (A) (A) (A)
                 (A) (A) (A) (A) (A) (A) (A) (A) (A) (A) (A) (A)
                 (A) (A) (A) (A) (A) (A) (A) (A) (A) (A) (A) (A)
                 (A) (A) (A) (A) (A) (A) (A) (A) (A) (A) (A) (A)
                 (A) (A) (A) (A) (A) (A) (A) (A) (A) (A) (A) (A)
                 (A) (A) (A) (A) (A) (A) (A) (A) (A) (A) (A) (A)
                 (A) (A) (A) (A) (A) (A) (A) (A) (A) (A) (A) (A)
                 (A) (A) (A) (A) (A) (A) (A) (A) (A) (A) (A) (A)
                 (A) (A) (A) (A) (A) (A) (A) (A) (A) (A) (A) (A)
                 (A) (A) (A) (A) (A) (A) (A) (A) (A) (A) (A) (A)
                 (A) (A) (A) (A) (A) (A) (A) (A) (A) (A) (A) (A)
                 (A) (A) (A) (A) (A) (A) (A) (A) (A) (A) (A) (A)
                 (A) (A) (A) (A) (A) (A) (A) (A) (A) (A) (A) (A)
                 (A) (A) (A) (A) (A) (A) (A) (A) (A) (A) (A) (A)
                 (A) (A) (A) (A) (A) (A) (A) (A) (A) (A) (A) (A)
                 (A) (A) (A) (A) (A) (A) (A) (A) (A) (A) (A) (A)
                 (A) (A) (A) (A) (A) (A) (A) (A) (A) (A) (A) (A)
                 (A) (A) (A) (A) (A) (A) (A) (A) (A) (A) (A) (A)
                 (A) (A) (A) (A) (A) (A) (A) (A) (A) (A) (A) (A)
                 (A) (A) (A) (A) (A) (A) (A) (A) (A) (A) (A) (A)
                 (A) (A) (A) (A) (A) (A) (A) (A) (A) (A)
 The electronic state is 1-A.
 Alpha  occ. eigenvalues --  -19.27710 -19.22174 -14.45101 -14.37273 -10.36352
 Alpha  occ. eigenvalues --  -10.30237 -10.30203 -10.28876 -10.28117 -10.27052
 Alpha  occ. eigenvalues --  -10.26963 -10.26480 -10.26262 -10.26003 -10.25991
 Alpha  occ. eigenvalues --  -10.25842 -10.25466 -10.25430 -10.25140 -10.25092
 Alpha  occ. eigenvalues --  -10.24092 -10.24069 -10.23991  -1.14696  -1.05000
 Alpha  occ. eigenvalues --   -1.02214  -0.93814  -0.91624  -0.90056  -0.86569
 Alpha  occ. eigenvalues --   -0.84405  -0.81121  -0.78906  -0.76215  -0.75502
 Alpha  occ. eigenvalues --   -0.74857  -0.69469  -0.67745  -0.65837  -0.64748
 Alpha  occ. eigenvalues --   -0.62696  -0.60877  -0.60475  -0.56131  -0.55039
 Alpha  occ. eigenvalues --   -0.54098  -0.51851  -0.50678  -0.50105  -0.49743
 Alpha  occ. eigenvalues --   -0.48791  -0.48049  -0.47411  -0.47256  -0.46799
 Alpha  occ. eigenvalues --   -0.45922  -0.44717  -0.44132  -0.43637  -0.42680
 Alpha  occ. eigenvalues --   -0.41725  -0.40056  -0.39687  -0.38900  -0.38541
 Alpha  occ. eigenvalues --   -0.38247  -0.37267  -0.36951  -0.36380  -0.36265
 Alpha  occ. eigenvalues --   -0.34263  -0.32426  -0.31884  -0.31162  -0.29788
 Alpha  occ. eigenvalues --   -0.27602  -0.25950  -0.24861  -0.20572
 Alpha virt. eigenvalues --   -0.07445  -0.04494  -0.02486  -0.00337   0.00997
 Alpha virt. eigenvalues --    0.01764   0.01810   0.02414   0.03030   0.03450
 Alpha virt. eigenvalues --    0.03874   0.04032   0.04595   0.04944   0.05178
 Alpha virt. eigenvalues --    0.05707   0.05968   0.06687   0.06925   0.07170
 Alpha virt. eigenvalues --    0.07583   0.08368   0.08553   0.09178   0.09406
 Alpha virt. eigenvalues --    0.10040   0.10383   0.10651   0.10870   0.11263
 Alpha virt. eigenvalues --    0.11935   0.12268   0.12329   0.13303   0.14071
 Alpha virt. eigenvalues --    0.14498   0.14963   0.15157   0.15286   0.15524
 Alpha virt. eigenvalues --    0.15866   0.16276   0.16959   0.17054   0.17508
 Alpha virt. eigenvalues --    0.17724   0.17993   0.18069   0.18388   0.19355
 Alpha virt. eigenvalues --    0.19565   0.19678   0.19874   0.20054   0.20217
 Alpha virt. eigenvalues --    0.20771   0.20802   0.21303   0.21637   0.21735
 Alpha virt. eigenvalues --    0.21840   0.22231   0.22474   0.22557   0.23373
 Alpha virt. eigenvalues --    0.23646   0.23685   0.23980   0.24279   0.24989
 Alpha virt. eigenvalues --    0.25280   0.25465   0.25649   0.26153   0.26222
 Alpha virt. eigenvalues --    0.26616   0.26820   0.26966   0.27129   0.27787
 Alpha virt. eigenvalues --    0.27906   0.28551   0.28752   0.29236   0.29251
 Alpha virt. eigenvalues --    0.29716   0.29895   0.30230   0.30683   0.30837
 Alpha virt. eigenvalues --    0.31328   0.31551   0.32192   0.32570   0.32620
 Alpha virt. eigenvalues --    0.33254   0.33491   0.34280   0.34348   0.34759
 Alpha virt. eigenvalues --    0.34961   0.35487   0.35801   0.36632   0.36963
 Alpha virt. eigenvalues --    0.37531   0.38105   0.38381   0.38635   0.40229
 Alpha virt. eigenvalues --    0.40646   0.41259   0.42553   0.42720   0.43123
 Alpha virt. eigenvalues --    0.43237   0.43690   0.46148   0.47638   0.48115
 Alpha virt. eigenvalues --    0.48606   0.49645   0.51580   0.52163   0.52313
 Alpha virt. eigenvalues --    0.53764   0.56375   0.59346   0.61476   0.63397
 Alpha virt. eigenvalues --    0.65700   0.66336   0.66526   0.68797   0.69370
 Alpha virt. eigenvalues --    0.70293   0.70910   0.71536   0.71981   0.72396
 Alpha virt. eigenvalues --    0.73134   0.73660   0.74447   0.74866   0.75243
 Alpha virt. eigenvalues --    0.75426   0.76259   0.76616   0.76795   0.77062
 Alpha virt. eigenvalues --    0.77254   0.77428   0.78355   0.78961   0.79021
 Alpha virt. eigenvalues --    0.79907   0.80257   0.81380   0.82198   0.83984
 Alpha virt. eigenvalues --    0.84012   0.84701   0.85815   0.86170   0.87261
 Alpha virt. eigenvalues --    0.88257   0.88780   0.90598   0.91575   0.92109
 Alpha virt. eigenvalues --    0.92807   0.93999   0.94597   0.95459   0.96578
 Alpha virt. eigenvalues --    0.96705   0.99187   0.99424   1.00013   1.00282
 Alpha virt. eigenvalues --    1.01365   1.01743   1.03146   1.03741   1.06301
 Alpha virt. eigenvalues --    1.06683   1.07223   1.07495   1.09749   1.11435
 Alpha virt. eigenvalues --    1.12665   1.13182   1.14175   1.16121   1.17064
 Alpha virt. eigenvalues --    1.17930   1.18449   1.18892   1.20068   1.20439
 Alpha virt. eigenvalues --    1.21184   1.22082   1.22935   1.24187   1.24236
 Alpha virt. eigenvalues --    1.24354   1.24917   1.25130   1.25247   1.26584
 Alpha virt. eigenvalues --    1.27197   1.27632   1.30349   1.30947   1.31342
 Alpha virt. eigenvalues --    1.31649   1.32589   1.32872   1.33645   1.33790
 Alpha virt. eigenvalues --    1.35233   1.35370   1.36355   1.37413   1.37837
 Alpha virt. eigenvalues --    1.38253   1.38350   1.39423   1.40922   1.40985
 Alpha virt. eigenvalues --    1.42034   1.42196   1.43646   1.44913   1.49712
 Alpha virt. eigenvalues --    1.50334   1.51199   1.52143   1.54990   1.57576
 Alpha virt. eigenvalues --    1.58658   1.60912   1.61134   1.61640   1.65241
 Alpha virt. eigenvalues --    1.65327   1.66705   1.68091   1.70730   1.72326
 Alpha virt. eigenvalues --    1.73473   1.73997   1.75550   1.75647   1.76839
 Alpha virt. eigenvalues --    1.77663   1.79687   1.81428   1.81755   1.82304
 Alpha virt. eigenvalues --    1.82527   1.82916   1.84272   1.84626   1.86388
 Alpha virt. eigenvalues --    1.87431   1.89531   1.90373   1.91893   1.93549
 Alpha virt. eigenvalues --    1.93751   1.94810   1.95365   1.96329   1.96934
 Alpha virt. eigenvalues --    1.97449   1.98406   1.98556   1.99560   1.99902
 Alpha virt. eigenvalues --    2.02211   2.02513   2.03541   2.04670   2.05581
 Alpha virt. eigenvalues --    2.07577   2.07663   2.08331   2.09575   2.09809
 Alpha virt. eigenvalues --    2.11351   2.13281   2.14847   2.15072   2.19735
[...]
    27  H   -0.000000   0.000197  -0.001918  -0.000056   0.010099   0.004749
    28  H    0.000000  -0.013121   0.015358  -0.002061  -0.008956  -0.003606
    29  H    0.000000  -0.013255   0.015422  -0.002026  -0.008980  -0.003631
    30  H    0.000419  -0.045276   0.400972   0.011807  -0.010012  -0.001112
    31  H    0.000419  -0.045179   0.401294   0.012216  -0.009951  -0.001123
    32  H   -0.000000  -0.000384   0.000619  -0.003826   0.072291   0.215581
    33  H    0.000000  -0.000045   0.000061   0.000118  -0.011312   0.000597
    34  C    0.005155  -0.279624  -0.182755  -1.074000   0.017641  -0.000095
    35  O    0.000020   0.004820   0.002998   0.094493  -0.000800   0.000132
    36  O    0.000074   0.040730   0.001583  -0.015699   0.000030  -0.000072
    37  H   -0.000000  -0.002525   0.000013   0.002752   0.000000  -0.000002
              13         14         15         16         17         18
     1  N   -0.019477  -0.010249  -0.000002   0.005194  -0.002380  -0.002883
     2  C   -0.029658  -0.026811   0.000029  -3.809389   0.128691  -0.751161
     3  C   -0.099252   0.050999   0.000001  -1.333909  -0.009531  -0.244086
     4  C   -0.229980   0.072003   0.000000  -1.275477   0.001621  -1.032068
     5  H    0.000116   0.000029  -0.000000   0.003394  -0.000002   0.006233
     6  C    0.188688  -0.006038   0.000002  -0.246123  -0.052366   0.903928
     7  H   -0.000288  -0.000048   0.000000   0.000877   0.000058  -0.025122
     8  C    0.027384   0.008085   0.000058  -1.011415   0.058493  -0.248997
     9  C   -0.646784  -0.047869   0.000076   1.158736  -0.246418   0.606797
    10  C   -0.168159  -0.152369  -0.000086   3.557427   0.094942  -0.596385
    11  C    0.939037  -0.154158   0.056831  -0.868992   0.715174  -0.830170
    12  C   -1.135690  -0.190167  -0.012976   0.076566   0.804715  -0.560478
    13  C    7.929301   0.107749  -0.008350  -0.102474  -0.401674   0.163867
    14  N    0.107749   7.490054   0.000347  -0.083546   0.037859  -0.146068
    15  H   -0.008350   0.000347   0.493495  -0.000536   0.027191   0.001981
    16  C   -0.102474  -0.083546  -0.000536  10.057235   0.175561  -0.010413
    17  C   -0.401674   0.037859   0.027191   0.175561   7.689081  -0.319918
    18  C    0.163867  -0.146068   0.001981  -0.010413  -0.319918   8.133361
    19  C   -0.561718   0.016859   0.014385  -0.006200  -0.189458   0.192985
    20  C    0.061115   0.052286  -0.000208  -0.329148  -0.621605   1.163576
    21  H    0.023324   0.143199  -0.000000   0.013373  -0.003378   0.008673
    22  H    0.006440   0.014823  -0.000000   0.017950   0.000019   0.002436
    23  C    0.727208  -0.106237   0.263817   0.394568  -0.918339  -0.508861
    24  C   -0.660702   0.031166   0.004191  -0.232071   0.095356  -0.190165
    25  C   -0.108494   0.044622  -0.024530  -0.285492  -0.819190   0.272957
    26  H    0.000674   0.000361   0.000472  -0.001251  -0.087440  -0.005050
    27  H    0.000644   0.000363   0.000471  -0.001266  -0.087225  -0.005007
    28  H   -0.008644   0.000251  -0.000001  -0.006787   0.018100   0.015541
    29  H   -0.008714   0.000247  -0.000001  -0.006829   0.018444   0.015654
    30  H    0.000596  -0.000197   0.000000   0.020701  -0.000919  -0.056622
    31  H    0.000528  -0.000195   0.000000   0.020893  -0.000873  -0.057183
    32  H    0.075634  -0.017249  -0.000119  -0.022182  -0.022325   0.012623
    33  H    0.041080  -0.000298  -0.003403   0.000819   0.021518  -0.000101
    34  C    0.006594  -0.000157   0.000000  -0.124443  -0.000354  -0.063453
    35  O    0.002311  -0.003357  -0.000000   0.036641   0.000046   0.002274
    36  O   -0.000346  -0.000282   0.000000   0.001458  -0.000007  -0.000726
    37  H   -0.000001  -0.000002   0.000000   0.001125  -0.000000  -0.000165
              19         20         21         22         23         24
     1  N    0.007105   0.068906   0.166021   0.268160  -0.017214   0.001660
     2  C   -0.093049  -0.512261  -0.054408   0.052563   0.220589   0.006739
     3  C   -0.013932   0.069009   0.019326  -0.138668   0.022643   0.010054
     4  C   -0.001479  -0.102781   0.009112  -0.052271   0.007054   0.023933
     5  H   -0.000000   0.000118   0.000001  -0.000003  -0.000000   0.000028
     6  C    0.004977   0.078670   0.000017   0.001402  -0.024916  -0.102627
     7  H   -0.000001  -0.000374   0.000000  -0.000000   0.000003  -0.000180
     8  C   -0.004318   0.207390  -0.014668  -0.010832  -0.017817  -0.543847
     9  C    0.060688  -0.493759   0.012318   0.001661  -0.141933   0.809178
    10  C   -0.012519  -0.351849  -0.033080   0.136190   0.076637   0.137543
    11  C    0.038899   0.167023   0.004956  -0.000689  -0.473173   0.329698
    12  C    0.283948  -1.004437  -0.045088   0.001859  -0.186815  -0.333040
    13  C   -0.561718   0.061115   0.023324   0.006440   0.727208  -0.660702
    14  N    0.016859   0.052286   0.143199   0.014823  -0.106237   0.031166
    15  H    0.014385  -0.000208  -0.000000  -0.000000   0.263817   0.004191
    16  C   -0.006200  -0.329148   0.013373   0.017950   0.394568  -0.232071
    17  C   -0.189458  -0.621605  -0.003378   0.000019  -0.918339   0.095356
    18  C    0.192985   1.163576   0.008673   0.002436  -0.508861  -0.190165
    19  C    5.611266   0.323514   0.008890   0.000048   0.049471  -0.002178
    20  C    0.323514   8.734632   0.022461  -0.000301  -1.415455  -1.230533
    21  H    0.008890   0.022461   0.279379  -0.004436  -0.004943   0.003075
    22  H    0.000048  -0.000301  -0.004436   0.366917  -0.000101  -0.000032
    23  C    0.049471  -1.415455  -0.004943  -0.000101   9.243089   0.002723
    24  C   -0.002178  -1.230533   0.003075  -0.000032   0.002723   7.983870
    25  C   -0.028462   0.244096  -0.000787   0.000031  -0.589880  -0.492438
    26  H   -0.004100   0.021506   0.000000  -0.000000  -0.001974  -0.060897
    27  H   -0.004077   0.021703   0.000000  -0.000000  -0.002271  -0.060919
    28  H    0.001024  -0.087762  -0.000000  -0.000000  -0.000419   0.447389
    29  H    0.001033  -0.088625  -0.000000  -0.000000  -0.000371   0.448123
    30  H    0.000028  -0.002217   0.000002  -0.000000  -0.000333   0.007341
    31  H    0.000027  -0.002361   0.000002  -0.000000  -0.000328   0.007447
    32  H    0.020086   0.016136   0.001283   0.000002  -0.020399  -0.000597
    33  H    0.254961   0.000392  -0.000002   0.000000   0.018066   0.001331
    34  C    0.000212  -0.001343   0.002286  -0.018553   0.000216  -0.002357
    35  O    0.000016  -0.000200   0.000130   0.014860  -0.000030  -0.000044
    36  O    0.000002   0.000185   0.000028   0.000042  -0.000000   0.000012
    37  H   -0.000000   0.000001  -0.000000   0.000024  -0.000000   0.000000
              25         26         27         28         29         30
     1  N    0.005077   0.000001   0.000001   0.000003   0.000003   0.000237
     2  C   -0.129007  -0.000070  -0.000071  -0.000984  -0.000983  -0.001951
     3  C   -0.012889   0.000000   0.000000  -0.000098  -0.000097   0.003284
     4  C   -0.008784  -0.000001  -0.000001   0.000089   0.000089  -0.004913
     5  H    0.000000   0.000000   0.000000   0.000000   0.000000   0.000001
     6  C    0.038906   0.000037   0.000037   0.000141   0.000127  -0.002481
     7  H   -0.000021  -0.000000  -0.000000   0.000000   0.000000   0.000419
     8  C    0.067255   0.000197   0.000197  -0.013121  -0.013255  -0.045276
     9  C   -0.012588  -0.001928  -0.001918   0.015358   0.015422   0.400972
    10  C   -0.070304  -0.000049  -0.000056  -0.002061  -0.002026   0.011807
    11  C   -0.848941   0.010072   0.010099  -0.008956  -0.008980  -0.010012
    12  C    0.469376   0.004784   0.004749  -0.003606  -0.003631  -0.001112
    13  C   -0.108494   0.000674   0.000644  -0.008644  -0.008714   0.000596
    14  N    0.044622   0.000361   0.000363   0.000251   0.000247  -0.000197
    15  H   -0.024530   0.000472   0.000471  -0.000001  -0.000001   0.000000
    16  C   -0.285492  -0.001251  -0.001266  -0.006787  -0.006829   0.020701
    17  C   -0.819190  -0.087440  -0.087225   0.018100   0.018444  -0.000919
    18  C    0.272957  -0.005050  -0.005007   0.015541   0.015654  -0.056622
    19  C   -0.028462  -0.004100  -0.004077   0.001024   0.001033   0.000028
    20  C    0.244096   0.021506   0.021703  -0.087762  -0.088625  -0.002217
    21  H   -0.000787   0.000000   0.000000  -0.000000  -0.000000   0.000002
    22  H    0.000031  -0.000000  -0.000000  -0.000000  -0.000000  -0.000000
    23  C   -0.589880  -0.001974  -0.002271  -0.000419  -0.000371  -0.000333
    24  C   -0.492438  -0.060897  -0.060919   0.447389   0.448123   0.007341
    25  C    7.816745   0.452274   0.452101  -0.037205  -0.037334  -0.002369
    26  H    0.452274   0.493593  -0.024580  -0.005153   0.002112  -0.000000
    27  H    0.452101  -0.024580   0.493596   0.002119  -0.005153   0.000000
    28  H   -0.037205  -0.005153   0.002119   0.482725  -0.021794   0.000266
    29  H   -0.037334   0.002112  -0.005153  -0.021794   0.482761  -0.000164
    30  H   -0.002369  -0.000000   0.000000   0.000266  -0.000164   0.480077
    31  H   -0.002419   0.000000  -0.000000  -0.000163   0.000265  -0.022248
    32  H   -0.001200  -0.000000  -0.000000  -0.000000  -0.000000   0.000000
    33  H   -0.000304   0.000001   0.000001  -0.000000  -0.000000  -0.000000
    34  C   -0.000185   0.000000   0.000000  -0.000004  -0.000004   0.000042
    35  O    0.000015   0.000000   0.000000  -0.000000  -0.000000  -0.000000
    36  O   -0.000000   0.000000   0.000000   0.000000   0.000000  -0.000000
    37  H    0.000000   0.000000   0.000000   0.000000   0.000000  -0.000000
              31         32         33         34         35         36
     1  N    0.000236  -0.000617   0.000007   0.026110  -0.010197  -0.001645
     2  C   -0.001848  -0.001517  -0.000002  -0.852064  -0.074011  -0.029613
     3  C    0.003316   0.000139   0.000002   0.123540  -0.261435  -0.007195
     4  C   -0.004868   0.000048  -0.000000   0.474919   0.027448   0.016991
     5  H    0.000001  -0.000000  -0.000000  -0.077103  -0.000092  -0.000972
     6  C   -0.003097   0.000054  -0.000002  -0.382231   0.047370   0.136719
     7  H    0.000419  -0.000000   0.000000   0.005155   0.000020   0.000074
     8  C   -0.045179  -0.000384  -0.000045  -0.279624   0.004820   0.040730
     9  C    0.401294   0.000619   0.000061  -0.182755   0.002998   0.001583
    10  C    0.012216  -0.003826   0.000118  -1.074000   0.094493  -0.015699
    11  C   -0.009951   0.072291  -0.011312   0.017641  -0.000800   0.000030
    12  C   -0.001123   0.215581   0.000597  -0.000095   0.000132  -0.000072
    13  C    0.000528   0.075634   0.041080   0.006594   0.002311  -0.000346
    14  N   -0.000195  -0.017249  -0.000298  -0.000157  -0.003357  -0.000282
    15  H    0.000000  -0.000119  -0.003403   0.000000  -0.000000   0.000000
    16  C    0.020893  -0.022182   0.000819  -0.124443   0.036641   0.001458
    17  C   -0.000873  -0.022325   0.021518  -0.000354   0.000046  -0.000007
    18  C   -0.057183   0.012623  -0.000101  -0.063453   0.002274  -0.000726
    19  C    0.000027   0.020086   0.254961   0.000212   0.000016   0.000002
    20  C   -0.002361   0.016136   0.000392  -0.001343  -0.000200   0.000185
    21  H    0.000002   0.001283  -0.000002   0.002286   0.000130   0.000028
    22  H   -0.000000   0.000002   0.000000  -0.018553   0.014860   0.000042
    23  C   -0.000328  -0.020399   0.018066   0.000216  -0.000030  -0.000000
    24  C    0.007447  -0.000597   0.001331  -0.002357  -0.000044   0.000012
    25  C   -0.002419  -0.001200  -0.000304  -0.000185   0.000015  -0.000000
    26  H    0.000000  -0.000000   0.000001   0.000000   0.000000   0.000000
    27  H   -0.000000  -0.000000   0.000001   0.000000   0.000000   0.000000
    28  H   -0.000163  -0.000000  -0.000000  -0.000004  -0.000000   0.000000
    29  H    0.000265  -0.000000  -0.000000  -0.000004  -0.000000   0.000000
    30  H   -0.022248   0.000000  -0.000000   0.000042  -0.000000  -0.000000
    31  H    0.480088   0.000000  -0.000000   0.000044  -0.000000  -0.000000
    32  H    0.000000   0.492432  -0.003766  -0.000035  -0.000000   0.000000
    33  H   -0.000000  -0.003766   0.493564   0.000000   0.000000  -0.000000
    34  C    0.000044  -0.000035   0.000000   6.846787   0.369077  -0.115880
    35  O   -0.000000  -0.000000   0.000000   0.369077   8.457071  -0.146534
    36  O   -0.000000   0.000000  -0.000000  -0.115880  -0.146534   8.417242
    37  H   -0.000000   0.000000   0.000000   0.019314   0.007044   0.201638
              37
     1  N   -0.000160
     2  C    0.034903
     3  C    0.025722
     4  C   -0.036013
     5  H    0.000111
     6  C   -0.013808
     7  H   -0.000000
     8  C   -0.002525
     9  C    0.000013
    10  C    0.002752
    11  C    0.000000
    12  C   -0.000002
    13  C   -0.000001
    14  N   -0.000002
    15  H    0.000000
    16  C    0.001125
    17  C   -0.000000
    18  C   -0.000165
    19  C   -0.000000
    20  C    0.000001
    21  H   -0.000000
    22  H    0.000024
    23  C   -0.000000
    24  C    0.000000
    25  C    0.000000
    26  H    0.000000
    27  H    0.000000
    28  H    0.000000
    29  H    0.000000
    30  H   -0.000000
    31  H   -0.000000
    32  H    0.000000
    33  H    0.000000
    34  C    0.019314
    35  O    0.007044
    36  O    0.201638
    37  H    0.347324
 Mulliken charges:
               1
     1  N   -0.797476
     2  C    0.445481
     3  C   -0.697292
     4  C   -0.931448
     5  H    0.186767
     6  C   -0.516778
     7  H    0.180936
     8  C    0.082982
     9  C   -0.966243
    10  C    0.475048
    11  C    0.149980
    12  C   -0.540894
    13  C   -0.111886
    14  N   -0.126006
    15  H    0.186865
    16  C    0.215428
    17  C   -0.103469
    18  C    0.152193
    19  C    0.031069
    20  C    0.992501
    21  H    0.442934
    22  H    0.340458
    23  C   -0.594273
    24  C   -0.438228
    25  C   -0.350634
    26  H    0.206410
    27  H    0.206465
    28  H    0.213750
    29  H    0.213679
    30  H    0.225041
    31  H    0.225061
    32  H    0.187286
    33  H    0.186717
    34  C    1.282702
    35  O   -0.570066
    36  O   -0.497762
    37  H    0.412704
 Sum of Mulliken charges =  -0.00000
 Mulliken charges with hydrogens summed into heavy atoms:
               1
     1  N   -0.457018
     2  C    0.445481
     3  C   -0.697292
     4  C   -0.744681
     6  C   -0.335843
     8  C    0.082982
     9  C   -0.516140
    10  C    0.475048
    11  C    0.149980
    12  C   -0.353608
    13  C   -0.111886
    14  N    0.316928
    16  C    0.215428
    17  C   -0.103469
    18  C    0.152193
    19  C    0.217786
    20  C    0.992501
    23  C   -0.407409
    24  C   -0.010799
    25  C    0.062240
    34  C    1.282702
    35  O   -0.570066
    36  O   -0.085058
 Electronic spatial extent (au):  <R**2>=           8180.7482
 Charge=             -0.0000 electrons
 Dipole moment (field-independent basis, Debye):
    X=              8.8672    Y=              5.7560    Z=             -0.0015  Tot=             10.5716
 Quadrupole moment (field-independent basis, Debye-Ang):
   XX=           -111.7166   YY=           -120.1204   ZZ=           -136.5971
   XY=             -4.9683   XZ=             -0.0015   YZ=             -0.0004
 Traceless Quadrupole moment (field-independent basis, Debye-Ang):
   XX=             11.0948   YY=              2.6910   ZZ=            -13.7857
   XY=             -4.9683   XZ=             -0.0015   YZ=             -0.0004
 Octapole moment (field-independent basis, Debye-Ang**2):
  XXX=             47.9005  YYY=             26.8380  ZZZ=             -0.0088  XYY=             52.7440
  XXY=             23.6857  XXZ=             -0.0390  XZZ=             -8.1480  YZZ=              5.9140
  YYZ=             -0.0030  XYZ=             -0.0000
 Hexadecapole moment (field-independent basis, Debye-Ang**3):
 XXXX=          -7179.2839 YYYY=          -2024.2995 ZZZZ=           -171.4176 XXXY=            106.3983
 XXXZ=              0.0535 YYYX=           -111.8406 YYYZ=              0.0054 ZZZX=              0.0241
 ZZZY=             -0.0045 XXYY=          -1755.5406 XXZZ=          -1531.8627 YYZZ=           -411.3840
 XXYZ=              0.0038 YYXZ=             -0.0223 ZZXY=             60.8110
 N-N= 1.785975393917D+03 E-N=-5.877182229165D+03  KE= 9.829550950376D+02
 Leave Link  601 at Tue Feb 11 12:09:39 2025, MaxMem=  8375500800 cpu:               4.2 elap:               0.2
 (Enter /gpfslocalsup/prod/g16/rev-C01/g16/l9999.exe)
 Electronic transition elements 
                 1             2             3 
      1  -0.991293D+03 -0.991264D+03 -0.991250D+03
      2   0.259145D+01  0.252111D+00  0.114409D+00
      3   0.491847D+00  0.219933D+00  0.637457D+00
      4  -0.300110D-02 -0.585001D-03 -0.229513D-03
      5  -0.263061D+00 -0.415838D-01 -0.221704D-01
      6  -0.536950D-01 -0.329861D-01 -0.937469D-01
      7   0.306632D-03  0.854959D-04  0.409065D-04
      8  -0.156504D-02 -0.398798D-04  0.361525D-04
      9  -0.631504D-03 -0.940103D-04  0.341570D-04
     10  -0.129468D+01  0.222333D+00  0.165448D-01
     11  -0.365493D+00 -0.114971D+01 -0.381825D+00
     12  -0.115379D-01  0.215270D-02  0.147581D+00
     13   0.546363D-02  0.535643D-02  0.214118D-01
     14  -0.321492D+00 -0.126044D+00  0.359913D+00
     15   0.593758D-03  0.143650D-02  0.527477D-03
     16   0.369266D-03  0.174305D-03 -0.288817D-03
 Unable to Open any file for archive entry.
 1\1\GINC-R2I5N1\SP\RPBE1PBE TD-FC\6-31+G(d,p)\C19H14N2O2\UZX44EF\11-Fe
 b-2025\0\\#P PBE1PBE/6-31+G(d,p) Geom=AllCheck Guess=Read SCRF(PCM,Sol
 vent=Acetonitrile) TD(NStates=3, Root=1)\\Title\\0,1\N,0,-2.0462205695
 ,1.4522153036,-0.0035667279\C,0,-1.3993498229,0.291883342,-0.004179574
 \C,0,0.0120293964,-0.0151887551,-0.0062211069\C,0,0.4299904832,-1.3618
 39078,-0.0064104566\H,0,1.5000297926,-1.547436314,-0.0076349896\C,0,-0
 .4327365973,-2.4612582883,-0.0051047038\H,0,-0.0360680323,-3.471218618
 3,-0.0054523376\C,0,-1.8038528941,-2.1961982562,-0.0033290157\C,0,-3.0
 188525174,-3.1082804354,-0.0018634846\C,0,-2.225097211,-0.8720934691,-
 0.0028163344\C,0,-6.2686343691,-0.9959713738,0.0009668451\C,0,-6.53393
 31934,1.3984196328,0.000925341\C,0,-5.6789355878,0.2832004814,0.000351
 2258\N,0,-4.3051610386,0.3330882821,-0.0007685165\H,0,-9.5699688196,-0
 .2000732899,0.0036605381\C,0,-3.6380860522,-0.8206386506,-0.0012756039
 \C,0,-7.6559725635,-1.2004231212,0.0022128864\C,0,-4.1809053081,-2.137
 4756251,-0.0007179877\C,0,-7.9079124112,1.1908411968,0.0020456387\C,0,
 -5.5458669365,-2.2249876028,0.000360761\H,0,-3.4818409441,1.1686351,-0
 .001912618\H,0,-1.4226547782,2.2530816968,-0.0048049803\C,0,-8.4886672
 933,-0.0967563094,0.0027218934\C,0,-6.5325404092,-3.3614613152,0.00078
 13589\C,0,-7.9342984611,-2.6852572672,0.0030154504\H,0,-8.521704037,-2
 .9766715233,-0.874042229\H,0,-8.51836171,-2.9760009832,0.8825440683\H,
 0,-6.387570333,-3.9996825796,-0.8775808395\H,0,-6.3853925599,-4.001431
 4826,0.8774860232\H,0,-3.0327428358,-3.7642379916,-0.8810433086\H,0,-3
 .0308075092,-3.763887978,0.8776136804\H,0,-6.1239187829,2.4036214664,0
 .0004673499\H,0,-8.5630152124,2.0576809687,0.0024451658\C,0,0.98193099
 99,1.0674241258,-0.0077221279\O,0,0.7030378611,2.2645804361,-0.0078654
 026\O,0,2.2731523869,0.667981052,-0.0091049216\H,0,2.8146947207,1.4712
 271429,-0.0101323097\\Version=ES64L-G16RevC.01\State=1-A\HF=-991.39720
 86\RMSD=5.258e-09\PG=C01 [X(C19H14N2O2)]\\@
 The archive entry for this job was punched.


 There ain't no surer way to find out whether you
 like people or hate them than to travel with them.
                                     -- Mark Twain
 Job cpu time:       0 days  1 hours 59 minutes 45.5 seconds.
 Elapsed time:       0 days  0 hours  3 minutes  3.7 seconds.
 File lengths (MBytes):  RWF=   1414 Int=      0 D2E=      0 Chk=     64 Scr=      1
 Normal termination of Gaussian 16 at Tue Feb 11 12:09:40 2025.
